 Entering Link 1 = C:\G09W\l1.exe PID=      2616.
  
 Copyright (c) 1988,1990,1992,1993,1995,1998,2003,2009, Gaussian, Inc.
                  All Rights Reserved.
  
 This is part of the Gaussian(R) 09 program.  It is based on
 the Gaussian(R) 03 system (copyright 2003, Gaussian, Inc.),
 the Gaussian(R) 98 system (copyright 1998, Gaussian, Inc.),
 the Gaussian(R) 94 system (copyright 1995, Gaussian, Inc.),
 the Gaussian 92(TM) system (copyright 1992, Gaussian, Inc.),
 the Gaussian 90(TM) system (copyright 1990, Gaussian, Inc.),
 the Gaussian 88(TM) system (copyright 1988, Gaussian, Inc.),
 the Gaussian 86(TM) system (copyright 1986, Carnegie Mellon
 University), and the Gaussian 82(TM) system (copyright 1983,
 Carnegie Mellon University). Gaussian is a federally registered
 trademark of Gaussian, Inc.
  
 This software contains proprietary and confidential information,
 including trade secrets, belonging to Gaussian, Inc.
  
 This software is provided under written license and may be
 used, copied, transmitted, or stored only in accord with that
 written license.
  
 The following legend is applicable only to US Government
 contracts under FAR:
  
                    RESTRICTED RIGHTS LEGEND
  
 Use, reproduction and disclosure by the US Government is
 subject to restrictions as set forth in subparagraphs (a)
 and (c) of the Commercial Computer Software - Restricted
 Rights clause in FAR 52.227-19.
  
 Gaussian, Inc.
 340 Quinnipiac St., Bldg. 40, Wallingford CT 06492
  
  
 ---------------------------------------------------------------
 Warning -- This program may not be used in any manner that
 competes with the business of Gaussian, Inc. or will provide
 assistance to any competitor of Gaussian, Inc.  The licensee
 of this program is prohibited from giving any competitor of
 Gaussian, Inc. access to this program.  By using this program,
 the user acknowledges that Gaussian, Inc. is engaged in the
 business of creating and licensing software in the field of
 computational chemistry and represents and warrants to the
 licensee that it is not a competitor of Gaussian, Inc. and that
 it will not use this program in any manner prohibited above.
 ---------------------------------------------------------------
  

 Cite this work as:
 Gaussian 09, Revision A.02,
 M. J. Frisch, G. W. Trucks, H. B. Schlegel, G. E. Scuseria, 
 M. A. Robb, J. R. Cheeseman, G. Scalmani, V. Barone, B. Mennucci, 
 G. A. Petersson, H. Nakatsuji, M. Caricato, X. Li, H. P. Hratchian, 
 A. F. Izmaylov, J. Bloino, G. Zheng, J. L. Sonnenberg, M. Hada, 
 M. Ehara, K. Toyota, R. Fukuda, J. Hasegawa, M. Ishida, T. Nakajima, 
 Y. Honda, O. Kitao, H. Nakai, T. Vreven, J. A. Montgomery, Jr., 
 J. E. Peralta, F. Ogliaro, M. Bearpark, J. J. Heyd, E. Brothers, 
 K. N. Kudin, V. N. Staroverov, R. Kobayashi, J. Normand, 
 K. Raghavachari, A. Rendell, J. C. Burant, S. S. Iyengar, J. Tomasi, 
 M. Cossi, N. Rega, J. M. Millam, M. Klene, J. E. Knox, J. B. Cross, 
 V. Bakken, C. Adamo, J. Jaramillo, R. Gomperts, R. E. Stratmann, 
 O. Yazyev, A. J. Austin, R. Cammi, C. Pomelli, J. W. Ochterski, 
 R. L. Martin, K. Morokuma, V. G. Zakrzewski, G. A. Voth, 
 P. Salvador, J. J. Dannenberg, S. Dapprich, A. D. Daniels, 
 O. Farkas, J. B. Foresman, J. V. Ortiz, J. Cioslowski, 
 and D. J. Fox, Gaussian, Inc., Wallingford CT, 2009.
 
 ******************************************
 Gaussian 09:  IA32W-G09RevA.02 11-Jun-2009
                25-Dec-2024 
 ******************************************
 %chk=C:\G09W\Hw5\ENERGY240.chk
 ----------------------------------
 # td b3lyp/3-21g geom=connectivity
 ----------------------------------
 1/38=1,57=2/1;
 2/12=2,17=6,18=5,40=1/2;
 3/5=5,11=2,16=1,25=1,30=1,74=-5/1,2,8,3;
 4//1;
 5/5=2,38=5/2;
 8/6=1,10=1/1;
 9/42=1/14;
 6/7=2,8=2,9=2,10=2/1;
 99/5=1,9=1/99;
 -------------------
 Title Card Required
 -------------------
 Symbolic Z-matrix:
 Charge =  0 Multiplicity = 1
 C                    -2.94329  -0.05849  -0.04828 
 C                    -2.17933  -0.89745  -0.84772 
 C                    -0.8011   -0.8559   -0.7696 
 C                    -0.16367   0.01696   0.09913 
 C                    -0.93789   0.85368   0.89584 
 C                    -2.31472   0.81952   0.82698 
 H                    -2.66436  -1.57439  -1.52134 
 H                    -0.19927  -1.49865  -1.37678 
 H                    -0.45798   1.53341   1.57081 
 H                    -2.90578   1.46632   1.44322 
 C                    -4.36918  -0.09656  -0.1234 
 N                    -5.50781  -0.12675  -0.18314 
 N                     1.25903   0.0379    0.14926 
 C                     1.99277   0.7666   -0.91222 
 H                     1.68071   0.43838  -1.90266 
 C                     1.95908  -1.22221   0.5343 
 H                     1.36185  -2.08437   0.25932 
 C                     2.21014  -1.23222   2.04387 
 H                     2.8283   -0.38569   2.31657 
 H                     1.27282  -1.15821   2.58307 
 H                     2.70791  -2.148     2.34515 
 C                     1.79496   2.27636  -0.78262 
 H                     0.7565    2.54682  -0.93284 
 H                     2.09374   2.59138   0.20941 
 H                     2.39306   2.80171  -1.51948 
 C                     3.43586   0.30804  -0.65381 
 H                     4.07601   0.4651   -1.51187 
 H                     3.83472   0.85589   0.19122 
 C                     3.26952  -1.18168  -0.29397 
 H                     4.10984  -1.57671   0.26075 
 H                     3.15285  -1.76168  -1.20237 
 
                          Input orientation:                          
 ---------------------------------------------------------------------
 Center     Atomic      Atomic             Coordinates (Angstroms)
 Number     Number       Type             X           Y           Z
 ---------------------------------------------------------------------
      1          6           0       -2.943293   -0.058490   -0.048277
      2          6           0       -2.179331   -0.897453   -0.847724
      3          6           0       -0.801097   -0.855898   -0.769595
      4          6           0       -0.163673    0.016960    0.099134
      5          6           0       -0.937887    0.853678    0.895838
      6          6           0       -2.314723    0.819520    0.826975
      7          1           0       -2.664360   -1.574386   -1.521336
      8          1           0       -0.199266   -1.498651   -1.376781
      9          1           0       -0.457976    1.533411    1.570807
     10          1           0       -2.905777    1.466318    1.443216
     11          6           0       -4.369183   -0.096558   -0.123399
     12          7           0       -5.507810   -0.126747   -0.183141
     13          7           0        1.259033    0.037899    0.149257
     14          6           0        1.992770    0.766604   -0.912218
     15          1           0        1.680710    0.438382   -1.902660
     16          6           0        1.959083   -1.222210    0.534298
     17          1           0        1.361849   -2.084373    0.259324
     18          6           0        2.210142   -1.232222    2.043870
     19          1           0        2.828298   -0.385691    2.316570
     20          1           0        1.272823   -1.158213    2.583073
     21          1           0        2.707913   -2.147997    2.345146
     22          6           0        1.794962    2.276357   -0.782617
     23          1           0        0.756499    2.546816   -0.932841
     24          1           0        2.093745    2.591378    0.209413
     25          1           0        2.393058    2.801712   -1.519480
     26          6           0        3.435861    0.308041   -0.653809
     27          1           0        4.076007    0.465103   -1.511873
     28          1           0        3.834724    0.855892    0.191220
     29          6           0        3.269517   -1.181678   -0.293972
     30          1           0        4.109839   -1.576706    0.260749
     31          1           0        3.152852   -1.761683   -1.202371
 ---------------------------------------------------------------------
                    Distance matrix (angstroms):
                    1          2          3          4          5
     1  C    0.000000
     2  C    1.388025   0.000000
     3  C    2.396907   1.381072   0.000000
     4  C    2.784548   2.407399   1.386680   0.000000
     5  C    2.396885   2.765439   2.390613   1.390770   0.000000
     6  C    1.389988   2.402279   2.765344   2.408500   1.378980
     7  H    2.132052   1.071095   2.133797   3.378127   3.836526
     8  H    3.371746   2.135883   1.069583   2.115814   3.353179
     9  H    3.366360   3.836855   3.362144   2.133556   1.071417
    10  H    2.133307   3.370985   3.836522   3.380285   2.132497
    11  C    1.428375   2.441625   3.704781   4.212923   3.703456
    12  N    2.568968   3.480579   4.798827   5.353516   4.796835
    13  N    4.208070   3.700162   2.426375   1.423743   2.459540
    14  C    5.078572   4.492179   3.233968   2.497007   3.444619
    15  H    5.006698   4.218680   3.019663   2.754365   3.855011
    16  C    5.072172   4.375148   3.074559   2.496198   3.582242
    17  H    4.767921   3.895419   2.691870   2.601630   3.784981
    18  C    5.684419   5.266960   4.138208   3.313224   3.947030
    19  H    6.245864   5.945671   4.787276   3.745803   4.211729
    20  H    5.090091   4.873985   3.953849   3.100727   3.432449
    21  H    6.483105   5.970212   4.866650   4.240002   4.939879
    22  C    5.333088   5.086484   4.068257   3.117469   3.508517
    23  H    4.610697   4.526514   3.745826   2.883029   3.013590
    24  H    5.697364   5.616819   4.606765   3.425745   3.561120
    25  H    6.230717   5.919613   4.913559   4.112375   4.552339
    26  C    6.418303   5.746407   4.395449   3.688942   4.672130
    27  H    7.189356   6.436374   5.107070   4.557528   5.575590
    28  H    6.843608   6.349999   5.034306   4.086498   4.824346
    29  C    6.318300   5.484283   4.111234   3.657602   4.822921
    30  H    7.221298   6.422130   5.069365   4.563857   5.638230
    31  H    6.433956   5.413395   4.079394   3.982063   5.289304
                    6          7          8          9         10
     6  C    0.000000
     7  H    3.371587   0.000000
     8  H    3.834790   2.470490   0.000000
     9  H    2.123779   4.907941   4.236579   0.000000
    10  H    1.071189   4.253555   4.905979   2.452042   0.000000
    11  C    2.441970   2.654171   4.574389   4.563406   2.653002
    12  N    3.480167   3.460005   5.611376   5.597614   3.457379
    13  N    3.720479   4.558877   2.610826   2.684303   4.589156
    14  C    4.645653   5.247868   3.186255   3.572053   5.480277
    15  H    4.853829   4.803777   2.750083   4.223511   5.769524
    16  C    4.745497   5.072069   2.896051   3.809196   5.632156
    17  H    4.719323   4.431839   2.336020   4.256773   5.676411
    18  C    5.115162   6.048846   4.192504   3.871869   5.815113
    19  H    5.488360   6.805278   4.903638   3.877978   6.088703
    20  H    4.457106   5.702700   4.238324   3.356365   5.064399
    21  H    6.028090   6.643797   4.767188   4.916830   6.737230
    22  C    4.647868   5.937970   4.310529   3.341602   5.263786
    23  H    3.938643   5.388219   4.180475   2.961451   4.497264
    24  H    4.791185   6.556573   4.949975   3.079605   5.270982
    25  H    5.621222   6.687878   5.023308   4.391680   6.215987
    26  C    5.960163   6.442734   4.123223   4.648915   6.779048
    27  H    6.814489   7.042170   4.706649   5.585804   7.647241
    28  H    6.182330   7.146831   4.927026   4.559558   6.882912
    29  C    6.036973   6.072193   3.647657   4.974264   6.940025
    30  H    6.880226   7.004684   4.610421   5.679261   7.738029
    31  H    6.377714   5.828960   3.366942   5.620164   7.357045
                   11         12         13         14         15
    11  C    0.000000
    12  N    1.140593   0.000000
    13  N    5.636420   6.777002   0.000000
    14  C    6.468518   7.588698   1.481928   0.000000
    15  H    6.328755   7.412890   2.132736   1.089077   0.000000
    16  C    6.461161   7.580847   1.492046   2.459456   2.962064
    17  H    6.078044   7.156835   2.127610   3.146211   3.337685
    18  C    7.019566   8.108541   2.471310   3.575054   4.318138
    19  H    7.605312   8.706681   2.709108   3.528592   4.449489
    20  H    6.346994   7.395461   2.711888   4.054664   4.778838
    21  H    7.770934   8.830390   3.420427   4.429080   5.078224
    22  C    6.637920   7.711340   2.483204   1.528162   2.155389
    23  H    5.823679   6.852120   2.778154   2.167475   2.498041
    24  H    7.007510   8.082446   2.687121   2.144307   3.044150
    25  H    7.488452   8.531435   3.421894   2.161172   2.497918
    26  C    7.833501   8.966594   2.335909   1.536088   2.158048
    27  H    8.576979   9.693574   3.298060   2.188691   2.427113
    28  H    8.265001   9.401525   2.702787   2.149033   3.032891
    29  C    7.717273   8.841189   2.392878   2.410002   2.781507
    30  H    8.615812   9.736457   3.278181   3.368817   3.826432
    31  H    7.779321   8.872368   2.941419   2.796822   2.738228
                   16         17         18         19         20
    16  C    0.000000
    17  H    1.084262   0.000000
    18  C    1.530340   2.151829   0.000000
    19  H    2.152160   3.044381   1.083096   0.000000
    20  H    2.161603   2.503100   1.083874   1.757076   0.000000
    21  H    2.167256   2.483262   1.084982   1.766644   1.759478
    22  C    3.741814   4.504353   4.524548   4.214171   4.837021
    23  H    4.219510   4.820334   5.025437   4.842584   5.133759
    24  H    3.829770   4.732950   4.242487   3.720567   4.513049
    25  H    4.538534   5.301072   5.385494   5.006421   5.810927
    26  C    2.436009   3.295297   3.339501   3.110232   4.160052
    27  H    3.393407   4.123545   4.359550   4.115532   5.221262
    28  H    2.820327   3.842514   3.229830   2.659235   4.042390
    29  C    1.550777   2.181786   2.567164   2.764633   3.502102
    30  H    2.196872   2.794490   2.628124   2.699493   3.690120
    31  H    2.175347   2.334176   3.421566   3.792313   4.269458
                   21         22         23         24         25
    21  H    0.000000
    22  C    5.494660   0.000000
    23  H    6.049338   1.083569   0.000000
    24  H    5.234523   1.082882   1.759250   0.000000
    25  H    6.287614   1.084750   1.757112   1.767173   0.000000
    26  C    3.944079   2.565815   3.502707   2.785688   2.838172
    27  H    4.855571   3.002602   3.960801   3.378348   2.879604
    28  H    3.864253   2.669589   3.687575   2.458302   2.964981
    29  C    2.866027   3.790922   4.541484   3.983941   4.258808
    30  H    2.576137   4.614472   5.447291   4.630356   5.028627
    31  H    3.596121   4.280867   4.937440   4.697231   4.637070
                   26         27         28         29         30
    26  C    0.000000
    27  H    1.082003   0.000000
    28  H    1.083194   1.763933   0.000000
    29  C    1.541562   2.201272   2.169462   0.000000
    30  H    2.200666   2.704129   2.449093   1.081621   0.000000
    31  H    2.159807   2.430346   3.042819   1.084069   1.758056
                   31
    31  H    0.000000
 Stoichiometry    C13H16N2
 Framework group  C1[X(C13H16N2)]
 Deg. of freedom    87
 Full point group                 C1      NOp   1
 Largest Abelian subgroup         C1      NOp   1
 Largest concise Abelian subgroup C1      NOp   1
                         Standard orientation:                         
 ---------------------------------------------------------------------
 Center     Atomic      Atomic             Coordinates (Angstroms)
 Number     Number       Type             X           Y           Z
 ---------------------------------------------------------------------
      1          6           0       -2.943147   -0.050965   -0.056734
      2          6           0       -2.174867   -0.441513   -1.144774
      3          6           0       -0.796692   -0.415579   -1.059206
      4          6           0       -0.163623   -0.001718    0.103043
      5          6           0       -0.942148    0.387845    1.187654
      6          6           0       -2.318944    0.364518    1.113655
      7          1           0       -2.656518   -0.762375   -2.046053
      8          1           0       -0.191506   -0.716835   -1.888061
      9          1           0       -0.465640    0.710543    2.091392
     10          1           0       -2.913328    0.665616    1.952400
     11          6           0       -4.368993   -0.075875   -0.137972
     12          7           0       -5.507585   -0.095685   -0.202530
     13          7           0        1.259050    0.018712    0.154308
     14          6           0        1.972778    1.151194   -0.481448
     15          1           0        1.656294    1.285487   -1.514836
     16          6           0        1.980155   -1.270805   -0.053909
     17          1           0        1.392553   -1.934800   -0.677974
     18          6           0        2.245129   -1.937706    1.297747
     19          1           0        2.853848   -1.286413    1.912868
     20          1           0        1.311838   -2.123237    1.816717
     21          1           0        2.758400   -2.884443    1.165726
     22          6           0        1.755059    2.447644    0.297714
     23          1           0        0.711582    2.739323    0.283522
     24          1           0        2.058467    2.300573    1.326766
     25          1           0        2.338980    3.252790   -0.135252
     26          6           0        3.424447    0.649760   -0.453395
     27          1           0        4.054458    1.177835   -1.156924
     28          1           0        3.823320    0.778028    0.545483
     29          6           0        3.282262   -0.849387   -0.783178
     30          1           0        4.133068   -1.433686   -0.459719
     31          1           0        3.165420   -0.974072   -1.853696
 ---------------------------------------------------------------------
 Rotational constants (GHZ):      1.4223635      0.3127357      0.2955345
 Standard basis: 3-21G (6D, 7F)
 There are   167 symmetry adapted basis functions of A   symmetry.
 Integral buffers will be    262144 words long.
 Raffenetti 2 integral format.
 Two-electron integral symmetry is turned on.
   167 basis functions,   273 primitive gaussians,   167 cartesian basis functions
    54 alpha electrons       54 beta electrons
       nuclear repulsion energy       950.1261387868 Hartrees.
 NAtoms=   31 NActive=   31 NUniq=   31 SFac= 7.50D-01 NAtFMM=   80 NAOKFM=F Big=F
 One-electron integrals computed using PRISM.
 NBasis=   167 RedAO= T  NBF=   167
 NBsUse=   167 1.00D-06 NBFU=   167
 Harris functional with IExCor=  402 diagonalized for initial guess.
 ExpMin= 1.83D-01 ExpMax= 2.43D+02 ExpMxC= 2.43D+02 IAcc=1 IRadAn=         1 AccDes= 0.00D+00
 HarFok:  IExCor=  402 AccDes= 0.00D+00 IRadAn=         1 IDoV= 1
 ScaDFX=  1.000000  1.000000  1.000000  1.000000
 FoFCou: FMM=F IPFlag=           0 FMFlag=      100000 FMFlg1=           0
         NFxFlg=           0 DoJE=T BraDBF=F KetDBF=T FulRan=T
         Omega=  0.000000  0.000000  1.000000  0.000000  0.000000 ICntrl=     500 IOpCl=  0
         NMat0=    1 NMatS0=    1 NMatT0=    0 NMatD0=    1 NMtDS0=    0 NMtDT0=    0
         I1Cent=           4 NGrid=           0.
 Petite list used in FoFCou.
 Initial guess orbital symmetries:
       Occupied  (A) (A) (A) (A) (A) (A) (A) (A) (A) (A) (A) (A)
                 (A) (A) (A) (A) (A) (A) (A) (A) (A) (A) (A) (A)
                 (A) (A) (A) (A) (A) (A) (A) (A) (A) (A) (A) (A)
                 (A) (A) (A) (A) (A) (A) (A) (A) (A) (A) (A) (A)
                 (A) (A) (A) (A) (A) (A)
       Virtual   (A) (A) (A) (A) (A) (A) (A) (A) (A) (A) (A) (A)
                 (A) (A) (A) (A) (A) (A) (A) (A) (A) (A) (A) (A)
                 (A) (A) (A) (A) (A) (A) (A) (A) (A) (A) (A) (A)
                 (A) (A) (A) (A) (A) (A) (A) (A) (A) (A) (A) (A)
                 (A) (A) (A) (A) (A) (A) (A) (A) (A) (A) (A) (A)
                 (A) (A) (A) (A) (A) (A) (A) (A) (A) (A) (A) (A)
                 (A) (A) (A) (A) (A) (A) (A) (A) (A) (A) (A) (A)
                 (A) (A) (A) (A) (A) (A) (A) (A) (A) (A) (A) (A)
                 (A) (A) (A) (A) (A) (A) (A) (A) (A) (A) (A) (A)
                 (A) (A) (A) (A) (A)
 The electronic state of the initial guess is 1-A.
 Requested convergence on RMS density matrix=1.00D-08 within 128 cycles.
 Requested convergence on MAX density matrix=1.00D-06.
 Requested convergence on             energy=1.00D-06.
 No special actions if energy rises.
 Integral accuracy reduced to 1.0D-05 until final iterations.
 Initial convergence to 1.0D-05 achieved.  Increase integral accuracy.
 SCF Done:  E(RB3LYP) =  -611.147291896     A.U. after   16 cycles
             Convg  =    0.3801D-08             -V/T =  2.0074
 ExpMin= 1.83D-01 ExpMax= 2.43D+02 ExpMxC= 2.43D+02 IAcc=1 IRadAn=         1 AccDes= 0.00D+00
 HarFok:  IExCor=  205 AccDes= 0.00D+00 IRadAn=         1 IDoV=-2
 ScaDFX=  1.000000  1.000000  1.000000  1.000000
 Range of M.O.s used for correlation:    16   167
 NBasis=   167 NAE=    54 NBE=    54 NFC=    15 NFV=     0
 NROrb=    152 NOA=    39 NOB=    39 NVA=   113 NVB=   113
 Would need an additional   268100000 words for in-memory AO integral storage.
 Orbital symmetries:
       Occupied  (A) (A) (A) (A) (A) (A) (A) (A) (A) (A) (A) (A)
                 (A) (A) (A) (A) (A) (A) (A) (A) (A) (A) (A) (A)
                 (A) (A) (A) (A) (A) (A) (A) (A) (A) (A) (A) (A)
                 (A) (A) (A) (A) (A) (A) (A) (A) (A) (A) (A) (A)
                 (A) (A) (A) (A) (A) (A)
       Virtual   (A) (A) (A) (A) (A) (A) (A) (A) (A) (A) (A) (A)
                 (A) (A) (A) (A) (A) (A) (A) (A) (A) (A) (A) (A)
                 (A) (A) (A) (A) (A) (A) (A) (A) (A) (A) (A) (A)
                 (A) (A) (A) (A) (A) (A) (A) (A) (A) (A) (A) (A)
                 (A) (A) (A) (A) (A) (A) (A) (A) (A) (A) (A) (A)
                 (A) (A) (A) (A) (A) (A) (A) (A) (A) (A) (A) (A)
                 (A) (A) (A) (A) (A) (A) (A) (A) (A) (A) (A) (A)
                 (A) (A) (A) (A) (A) (A) (A) (A) (A) (A) (A) (A)
                 (A) (A) (A) (A) (A) (A) (A) (A) (A) (A) (A) (A)
                 (A) (A) (A) (A) (A)
    12 initial guesses have been made.
 Convergence on wavefunction:    0.001000000000000
 Iteration     1 Dimension    12 NMult    12
 CISAX will form    12 AO SS matrices at one time.
 No map to state      3
 Iteration     2 Dimension    18 NMult    18
 Iteration     3 Dimension    24 NMult    24
 Iteration     4 Dimension    30 NMult    30
 Iteration     5 Dimension    34 NMult    34
 Iteration     6 Dimension    36 NMult    36
 ***********************************************************************
 Excited states from <AA,BB:AA,BB> singles matrix:
 ***********************************************************************
 
 Ground to excited state transition electric dipole moments (Au):
       state          X           Y           Z        Dip. S.      Osc.
         1        -0.4467     -0.0140     -0.0258      0.2004      0.0176
         2         0.0469     -0.0030     -0.0744      0.0077      0.0008
         3         0.0660     -0.0449     -0.1438      0.0271      0.0036
 Ground to excited state transition velocity dipole moments (Au):
       state          X           Y           Z        Dip. S.      Osc.
         1         0.0480      0.0030      0.0013      0.0023      0.0117
         2        -0.0069     -0.0024      0.0112      0.0002      0.0008
         3        -0.0119      0.0066      0.0229      0.0007      0.0024
 Ground to excited state transition magnetic dipole moments (Au):
       state          X           Y           Z
         1         0.2806      0.0205     -0.0973
         2         0.0769      0.1214     -0.2536
         3         0.0163     -0.0129     -0.0263
 <0|del|b> * <b|rxdel|0> + <0|del|b> * <b|delr+rdel|0>
 Rotatory Strengths (R) in cgs (10**-40 erg-esu-cm/Gauss)
       state          XX          YY          ZZ    R(velocity)
         1        -0.0650     34.0365     38.1389     24.0368
 Total R(velocity) tensor for State=          1
                 1             2             3 
      1  -0.650361D-01 -0.323914D+01  0.983966D+01
      2  -0.186306D+01  0.340365D+02 -0.876608D+01
      3  -0.987526D+00 -0.629118D+00  0.381389D+02
 R(velocity) tensor in inp. orien. for State=          1
                 1             2             3 
      1  -0.158217D+00  0.181682D+01  0.981047D+01
      2  -0.162073D+01  0.311258D+02 -0.549857D+01
      3  -0.407978D+00  0.281397D+01  0.411427D+02
         2        -6.6476     -8.4547     -1.2983     -5.4668
 Total R(velocity) tensor for State=          2
                 1             2             3 
      1  -0.664757D+01  0.178438D+01 -0.370416D+01
      2   0.871421D+00 -0.845467D+01 -0.127105D+01
      3  -0.133583D+01 -0.223380D+01 -0.129829D+01
 R(velocity) tensor in inp. orien. for State=          2
                 1             2             3 
      1  -0.659339D+01 -0.587033D-01 -0.412844D+01
      2   0.150771D+00 -0.846114D+01  0.228364D+01
      3  -0.161339D+01  0.128365D+01 -0.134602D+01
         3        -1.4806      0.0872     -1.7452     -1.0462
 Total R(velocity) tensor for State=          3
                 1             2             3 
      1  -0.148057D+01 -0.106073D+01 -0.462281D+00
      2  -0.700327D+00  0.871585D-01 -0.389679D+00
      3  -0.442407D+00  0.521708D+01 -0.174521D+01
 R(velocity) tensor in inp. orien. for State=          3
                 1             2             3 
      1  -0.150763D+01 -0.114458D+01  0.377327D-01
      2  -0.760698D+00  0.166472D+01 -0.204875D+01
      3  -0.240585D-01  0.355615D+01 -0.329572D+01
 1/2[<0|r|b>*<b|rxdel|0> + (<0|rxdel|b>*<b|r|0>)*]
 Rotatory Strengths (R) in cgs (10**-40 erg-esu-cm/Gauss)
       state          XX          YY          ZZ     R(length)     R(au)
         1        88.6309      0.2031     -1.7735     29.0202      0.0616
         2        -2.5528      0.2540    -13.3424     -5.2137     -0.0111
         3        -0.7588     -0.4093     -2.6789     -1.2823     -0.0027
  1/2[<0|del|b>*<b|r|0> + (<0|r|b>*<b|del|0>)*] (Au)
       state          X           Y           Z        Dip. S.   Osc.(frdel)
         1        -0.0214      0.0000      0.0000      0.0215      0.0143
         2        -0.0003      0.0000     -0.0008      0.0011      0.0008
         3        -0.0008     -0.0003     -0.0033      0.0044      0.0029
 Ground to excited state transition densities written to RWF  633

 Excitation energies and oscillator strengths:
 
 Excited State   1:      Singlet-A      3.5756 eV  346.75 nm  f=0.0176  <S**2>=0.000
      54 -> 55         0.70180
 This state for optimization and/or second-order correction.
 Copying the excited state density for this state as the 1-particle RhoCI density.
 
 Excited State   2:      Singlet-A      4.2821 eV  289.54 nm  f=0.0008  <S**2>=0.000
      54 -> 56         0.70512
 
 Excited State   3:      Singlet-A      5.4107 eV  229.14 nm  f=0.0036  <S**2>=0.000
      52 -> 55         0.53606
      53 -> 56         0.45762
 SavETr:  write IOETrn=   770 NScale= 10 NData=  16 NLR=1 LETran=      62.

 **********************************************************************

            Population analysis using the SCF density.

 **********************************************************************

 Orbital symmetries:
       Occupied  (A) (A) (A) (A) (A) (A) (A) (A) (A) (A) (A) (A)
                 (A) (A) (A) (A) (A) (A) (A) (A) (A) (A) (A) (A)
                 (A) (A) (A) (A) (A) (A) (A) (A) (A) (A) (A) (A)
                 (A) (A) (A) (A) (A) (A) (A) (A) (A) (A) (A) (A)
                 (A) (A) (A) (A) (A) (A)
       Virtual   (A) (A) (A) (A) (A) (A) (A) (A) (A) (A) (A) (A)
                 (A) (A) (A) (A) (A) (A) (A) (A) (A) (A) (A) (A)
                 (A) (A) (A) (A) (A) (A) (A) (A) (A) (A) (A) (A)
                 (A) (A) (A) (A) (A) (A) (A) (A) (A) (A) (A) (A)
                 (A) (A) (A) (A) (A) (A) (A) (A) (A) (A) (A) (A)
                 (A) (A) (A) (A) (A) (A) (A) (A) (A) (A) (A) (A)
                 (A) (A) (A) (A) (A) (A) (A) (A) (A) (A) (A) (A)
                 (A) (A) (A) (A) (A) (A) (A) (A) (A) (A) (A) (A)
                 (A) (A) (A) (A) (A) (A) (A) (A) (A) (A) (A) (A)
                 (A) (A) (A) (A) (A)
 The electronic state is 1-A.
 Alpha  occ. eigenvalues --  -14.24702 -14.24394 -10.17474 -10.17340 -10.15730
 Alpha  occ. eigenvalues --  -10.15713 -10.15691 -10.15035 -10.14950 -10.14028
 Alpha  occ. eigenvalues --  -10.13918 -10.12268 -10.12112 -10.10751 -10.10372
 Alpha  occ. eigenvalues --   -0.94848  -0.93431  -0.88582  -0.81132  -0.78175
 Alpha  occ. eigenvalues --   -0.77550  -0.75554  -0.71375  -0.65155  -0.64939
 Alpha  occ. eigenvalues --   -0.63937  -0.58468  -0.57595  -0.57024  -0.52870
 Alpha  occ. eigenvalues --   -0.49844  -0.47970  -0.46854  -0.45339  -0.45061
 Alpha  occ. eigenvalues --   -0.43654  -0.43571  -0.41177  -0.41010  -0.40023
 Alpha  occ. eigenvalues --   -0.38801  -0.38164  -0.37266  -0.36838  -0.36536
 Alpha  occ. eigenvalues --   -0.34415  -0.34292  -0.33795  -0.33562  -0.33197
 Alpha  occ. eigenvalues --   -0.33047  -0.27562  -0.26197  -0.20528
 Alpha virt. eigenvalues --   -0.03982  -0.01433   0.05447   0.08811   0.09916
 Alpha virt. eigenvalues --    0.10763   0.12193   0.13618   0.14500   0.15193
 Alpha virt. eigenvalues --    0.16319   0.16809   0.17427   0.17980   0.19035
 Alpha virt. eigenvalues --    0.19481   0.19884   0.20424   0.21176   0.21764
 Alpha virt. eigenvalues --    0.22397   0.22858   0.23411   0.23888   0.24535
 Alpha virt. eigenvalues --    0.26215   0.27816   0.29877   0.31098   0.33252
 Alpha virt. eigenvalues --    0.33571   0.35660   0.38188   0.39415   0.50356
 Alpha virt. eigenvalues --    0.53913   0.59596   0.64469   0.65870   0.66231
 Alpha virt. eigenvalues --    0.67849   0.68987   0.70088   0.70498   0.71414
 Alpha virt. eigenvalues --    0.71936   0.73091   0.73685   0.75058   0.75593
 Alpha virt. eigenvalues --    0.75954   0.76627   0.77488   0.78399   0.79154
 Alpha virt. eigenvalues --    0.80355   0.81282   0.83558   0.84519   0.86627
 Alpha virt. eigenvalues --    0.90290   0.91013   0.93355   0.93671   0.95138
 Alpha virt. eigenvalues --    0.95983   0.96735   0.99582   1.00033   1.00481
 Alpha virt. eigenvalues --    1.00714   1.04695   1.05657   1.06676   1.07878
 Alpha virt. eigenvalues --    1.08070   1.09114   1.10044   1.12521   1.12781
 Alpha virt. eigenvalues --    1.13519   1.14353   1.16546   1.16950   1.18554
 Alpha virt. eigenvalues --    1.18723   1.20780   1.24559   1.28286   1.28990
 Alpha virt. eigenvalues --    1.33807   1.35417   1.39768   1.42429   1.50027
 Alpha virt. eigenvalues --    1.51152   1.52648   1.54313   1.56805   1.62717
 Alpha virt. eigenvalues --    1.73332   1.76009   1.78517   1.83314   1.93189
 Alpha virt. eigenvalues --    1.95994   1.99010   2.20153   2.37887   2.43970
 Alpha virt. eigenvalues --    2.50337   2.96874   2.99880
          Condensed to atoms (all electrons):
              1          2          3          4          5          6
     1  C    5.428881   0.447486  -0.083280  -0.030617  -0.084565   0.444395
     2  C    0.447486   5.187455   0.376884  -0.049009  -0.020797  -0.061040
     3  C   -0.083280   0.376884   5.354544   0.344424  -0.114634  -0.019427
     4  C   -0.030617  -0.049009   0.344424   5.008790   0.446370  -0.069889
     5  C   -0.084565  -0.020797  -0.114634   0.446370   5.231881   0.404943
     6  C    0.444395  -0.061040  -0.019427  -0.069889   0.404943   5.180758
     7  H   -0.043161   0.395183  -0.032088   0.003541  -0.000209   0.003760
     8  H    0.004474  -0.041055   0.397527  -0.050548   0.004108  -0.000154
     9  H    0.004792  -0.000508   0.005943  -0.041407   0.380052  -0.039448
    10  H   -0.043990   0.003834  -0.000293   0.004129  -0.032987   0.396514
    11  C    0.069619  -0.077586   0.004493  -0.000127   0.004110  -0.077352
    12  N   -0.117056  -0.000779  -0.000007   0.000000  -0.000006  -0.000786
    13  N   -0.000338   0.005584  -0.077527   0.320227  -0.062442   0.004167
    14  C    0.000011   0.000201  -0.001520  -0.070831  -0.000366  -0.000099
    15  H   -0.000002  -0.000353   0.005247  -0.003715  -0.000319   0.000033
    16  C    0.000004   0.000360  -0.004395  -0.072616   0.001356  -0.000116
    17  H    0.000005  -0.000685   0.005015  -0.003568  -0.000422   0.000028
    18  C    0.000000   0.000014  -0.000350  -0.000349   0.000464   0.000001
    19  H    0.000000   0.000000   0.000010   0.000031  -0.000014   0.000001
    20  H   -0.000003  -0.000010   0.000091   0.002489   0.000715   0.000017
    21  H    0.000000  -0.000001   0.000012   0.000016  -0.000022   0.000000
    22  C    0.000001   0.000015  -0.000697  -0.003955   0.000663  -0.000005
    23  H   -0.000013  -0.000010  -0.000032   0.003110   0.002287   0.000025
    24  H    0.000000  -0.000002   0.000058   0.000000  -0.000015   0.000023
    25  H    0.000000  -0.000001   0.000020   0.000131  -0.000026   0.000001
    26  C    0.000000   0.000000  -0.000099   0.005387  -0.000078   0.000001
    27  H    0.000000   0.000000   0.000006  -0.000085  -0.000001   0.000000
    28  H    0.000000   0.000000   0.000001  -0.000142   0.000003   0.000000
    29  C    0.000000   0.000002  -0.000161   0.004876  -0.000060   0.000001
    30  H    0.000000   0.000000   0.000000  -0.000063   0.000001   0.000000
    31  H    0.000000   0.000000   0.000038  -0.000205   0.000002   0.000000
              7          8          9         10         11         12
     1  C   -0.043161   0.004474   0.004792  -0.043990   0.069619  -0.117056
     2  C    0.395183  -0.041055  -0.000508   0.003834  -0.077586  -0.000779
     3  C   -0.032088   0.397527   0.005943  -0.000293   0.004493  -0.000007
     4  C    0.003541  -0.050548  -0.041407   0.004129  -0.000127   0.000000
     5  C   -0.000209   0.004108   0.380052  -0.032987   0.004110  -0.000006
     6  C    0.003760  -0.000154  -0.039448   0.396514  -0.077352  -0.000786
     7  H    0.477433  -0.003869   0.000003  -0.000051  -0.006190  -0.000106
     8  H   -0.003869   0.494548  -0.000042   0.000002  -0.000078   0.000000
     9  H    0.000003  -0.000042   0.490110  -0.004545  -0.000076   0.000000
    10  H   -0.000051   0.000002  -0.004545   0.476962  -0.006241  -0.000108
    11  C   -0.006190  -0.000078  -0.000076  -0.006241   4.954852   0.845326
    12  N   -0.000106   0.000000   0.000000  -0.000108   0.845326   6.746699
    13  N   -0.000023  -0.008817   0.000126  -0.000018   0.000000   0.000000
    14  C   -0.000001   0.000796  -0.000136   0.000001   0.000000   0.000000
    15  H    0.000003   0.001729   0.000066   0.000000   0.000000   0.000000
    16  C   -0.000002   0.001064  -0.000123   0.000001   0.000000   0.000000
    17  H    0.000008   0.002940   0.000042   0.000000   0.000000   0.000000
    18  C    0.000000  -0.000053  -0.000043   0.000000   0.000000   0.000000
    19  H    0.000000   0.000002   0.000066   0.000000   0.000000   0.000000
    20  H    0.000000  -0.000004   0.000146  -0.000001   0.000000   0.000000
    21  H    0.000000   0.000004   0.000005   0.000000   0.000000   0.000000
    22  C    0.000000  -0.000057   0.000008  -0.000001   0.000000   0.000000
    23  H    0.000000  -0.000006  -0.000005  -0.000002   0.000000   0.000000
    24  H    0.000000   0.000002   0.000802   0.000000   0.000000   0.000000
    25  H    0.000000   0.000002   0.000020   0.000000   0.000000   0.000000
    26  C    0.000000  -0.000109  -0.000015   0.000000   0.000000   0.000000
    27  H    0.000000   0.000002   0.000000   0.000000   0.000000   0.000000
    28  H    0.000000   0.000002   0.000005   0.000000   0.000000   0.000000
    29  C    0.000000  -0.000056  -0.000004   0.000000   0.000000   0.000000
    30  H    0.000000   0.000000   0.000000   0.000000   0.000000   0.000000
    31  H    0.000000   0.000259   0.000000   0.000000   0.000000   0.000000
             13         14         15         16         17         18
     1  C   -0.000338   0.000011  -0.000002   0.000004   0.000005   0.000000
     2  C    0.005584   0.000201  -0.000353   0.000360  -0.000685   0.000014
     3  C   -0.077527  -0.001520   0.005247  -0.004395   0.005015  -0.000350
     4  C    0.320227  -0.070831  -0.003715  -0.072616  -0.003568  -0.000349
     5  C   -0.062442  -0.000366  -0.000319   0.001356  -0.000422   0.000464
     6  C    0.004167  -0.000099   0.000033  -0.000116   0.000028   0.000001
     7  H   -0.000023  -0.000001   0.000003  -0.000002   0.000008   0.000000
     8  H   -0.008817   0.000796   0.001729   0.001064   0.002940  -0.000053
     9  H    0.000126  -0.000136   0.000066  -0.000123   0.000042  -0.000043
    10  H   -0.000018   0.000001   0.000000   0.000001   0.000000   0.000000
    11  C    0.000000   0.000000   0.000000   0.000000   0.000000   0.000000
    12  N    0.000000   0.000000   0.000000   0.000000   0.000000   0.000000
    13  N    7.232043   0.273605  -0.049797   0.268999  -0.042870  -0.066800
    14  C    0.273605   5.292634   0.351993  -0.083551   0.001333   0.004988
    15  H   -0.049797   0.351993   0.621214   0.000550   0.001015  -0.000268
    16  C    0.268999  -0.083551   0.000550   5.296341   0.367654   0.271703
    17  H   -0.042870   0.001333   0.001015   0.367654   0.574965  -0.063386
    18  C   -0.066800   0.004988  -0.000268   0.271703  -0.063386   5.385118
    19  H    0.002760   0.000184   0.000027  -0.043122   0.004151   0.362552
    20  H   -0.001325   0.000006   0.000000  -0.037789  -0.001553   0.366534
    21  H    0.003166  -0.000130   0.000010  -0.037251   0.002406   0.334061
    22  C   -0.060734   0.279023  -0.064227   0.004770  -0.000152  -0.000067
    23  H   -0.002654  -0.038220  -0.002584   0.000000  -0.000003   0.000003
    24  H    0.004608  -0.041655   0.004845  -0.000006   0.000009  -0.000053
    25  H    0.002815  -0.037062   0.002648  -0.000096   0.000003  -0.000001
    26  C   -0.067752   0.268776  -0.048916  -0.090435   0.004997   0.000527
    27  H    0.002633  -0.036445  -0.000805   0.003957  -0.000032  -0.000110
    28  H    0.001666  -0.045791   0.004399   0.000488   0.000023   0.000760
    29  C   -0.049794  -0.089123  -0.002138   0.273385  -0.037715  -0.075353
    30  H    0.002272   0.004249  -0.000128  -0.038968   0.001240  -0.001895
    31  H    0.001332   0.000953   0.002042  -0.039006  -0.004658   0.003582
             19         20         21         22         23         24
     1  C    0.000000  -0.000003   0.000000   0.000001  -0.000013   0.000000
     2  C    0.000000  -0.000010  -0.000001   0.000015  -0.000010  -0.000002
     3  C    0.000010   0.000091   0.000012  -0.000697  -0.000032   0.000058
     4  C    0.000031   0.002489   0.000016  -0.003955   0.003110   0.000000
     5  C   -0.000014   0.000715  -0.000022   0.000663   0.002287  -0.000015
     6  C    0.000001   0.000017   0.000000  -0.000005   0.000025   0.000023
     7  H    0.000000   0.000000   0.000000   0.000000   0.000000   0.000000
     8  H    0.000002  -0.000004   0.000004  -0.000057  -0.000006   0.000002
     9  H    0.000066   0.000146   0.000005   0.000008  -0.000005   0.000802
    10  H    0.000000  -0.000001   0.000000  -0.000001  -0.000002   0.000000
    11  C    0.000000   0.000000   0.000000   0.000000   0.000000   0.000000
    12  N    0.000000   0.000000   0.000000   0.000000   0.000000   0.000000
    13  N    0.002760  -0.001325   0.003166  -0.060734  -0.002654   0.004608
    14  C    0.000184   0.000006  -0.000130   0.279023  -0.038220  -0.041655
    15  H    0.000027   0.000000   0.000010  -0.064227  -0.002584   0.004845
    16  C   -0.043122  -0.037789  -0.037251   0.004770   0.000000  -0.000006
    17  H    0.004151  -0.001553   0.002406  -0.000152  -0.000003   0.000009
    18  C    0.362552   0.366534   0.334061  -0.000067   0.000003  -0.000053
    19  H    0.530150  -0.026691  -0.024302  -0.000108  -0.000001   0.000110
    20  H   -0.026691   0.524880  -0.027117  -0.000002   0.000000   0.000002
    21  H   -0.024302  -0.027117   0.570957  -0.000002   0.000000   0.000002
    22  C   -0.000108  -0.000002  -0.000002   5.377157   0.367049   0.353919
    23  H   -0.000001   0.000000   0.000000   0.367049   0.523045  -0.027391
    24  H    0.000110   0.000002   0.000002   0.353919  -0.027391   0.531423
    25  H    0.000002   0.000000   0.000000   0.345312  -0.028004  -0.022533
    26  C    0.001730  -0.000169   0.000247  -0.056211   0.003864  -0.004815
    27  H   -0.000012   0.000002   0.000003  -0.000050  -0.000081   0.000045
    28  H    0.001837  -0.000042   0.000065  -0.004915   0.000031   0.005437
    29  C   -0.003404   0.003885  -0.000547   0.005091  -0.000142  -0.000063
    30  H    0.000541   0.000082   0.001419  -0.000068   0.000001  -0.000003
    31  H    0.000031  -0.000089   0.000003  -0.000055   0.000003   0.000002
             25         26         27         28         29         30
     1  C    0.000000   0.000000   0.000000   0.000000   0.000000   0.000000
     2  C   -0.000001   0.000000   0.000000   0.000000   0.000002   0.000000
     3  C    0.000020  -0.000099   0.000006   0.000001  -0.000161   0.000000
     4  C    0.000131   0.005387  -0.000085  -0.000142   0.004876  -0.000063
     5  C   -0.000026  -0.000078  -0.000001   0.000003  -0.000060   0.000001
     6  C    0.000001   0.000001   0.000000   0.000000   0.000001   0.000000
     7  H    0.000000   0.000000   0.000000   0.000000   0.000000   0.000000
     8  H    0.000002  -0.000109   0.000002   0.000002  -0.000056   0.000000
     9  H    0.000020  -0.000015   0.000000   0.000005  -0.000004   0.000000
    10  H    0.000000   0.000000   0.000000   0.000000   0.000000   0.000000
    11  C    0.000000   0.000000   0.000000   0.000000   0.000000   0.000000
    12  N    0.000000   0.000000   0.000000   0.000000   0.000000   0.000000
    13  N    0.002815  -0.067752   0.002633   0.001666  -0.049794   0.002272
    14  C   -0.037062   0.268776  -0.036445  -0.045791  -0.089123   0.004249
    15  H    0.002648  -0.048916  -0.000805   0.004399  -0.002138  -0.000128
    16  C   -0.000096  -0.090435   0.003957   0.000488   0.273385  -0.038968
    17  H    0.000003   0.004997  -0.000032   0.000023  -0.037715   0.001240
    18  C   -0.000001   0.000527  -0.000110   0.000760  -0.075353  -0.001895
    19  H    0.000002   0.001730  -0.000012   0.001837  -0.003404   0.000541
    20  H    0.000000  -0.000169   0.000002  -0.000042   0.003885   0.000082
    21  H    0.000000   0.000247   0.000003   0.000065  -0.000547   0.001419
    22  C    0.345312  -0.056211  -0.000050  -0.004915   0.005091  -0.000068
    23  H   -0.028004   0.003864  -0.000081   0.000031  -0.000142   0.000001
    24  H   -0.022533  -0.004815   0.000045   0.005437  -0.000063  -0.000003
    25  H    0.552283  -0.003098   0.001613   0.000204  -0.000046  -0.000001
    26  C   -0.003098   5.428154   0.373054   0.369402   0.264863  -0.032594
    27  H    0.001613   0.373054   0.526987  -0.026267  -0.033588   0.000281
    28  H    0.000204   0.369402  -0.026267   0.531470  -0.043675  -0.004038
    29  C   -0.000046   0.264863  -0.033588  -0.043675   5.429830   0.380276
    30  H   -0.000001  -0.032594   0.000281  -0.004038   0.380276   0.516459
    31  H   -0.000002  -0.043962  -0.004108   0.003744   0.368508  -0.027926
             31
     1  C    0.000000
     2  C    0.000000
     3  C    0.000038
     4  C   -0.000205
     5  C    0.000002
     6  C    0.000000
     7  H    0.000000
     8  H    0.000259
     9  H    0.000000
    10  H    0.000000
    11  C    0.000000
    12  N    0.000000
    13  N    0.001332
    14  C    0.000953
    15  H    0.002042
    16  C   -0.039006
    17  H   -0.004658
    18  C    0.003582
    19  H    0.000031
    20  H   -0.000089
    21  H    0.000003
    22  C   -0.000055
    23  H    0.000003
    24  H    0.000002
    25  H   -0.000002
    26  C   -0.043962
    27  H   -0.004108
    28  H    0.003744
    29  C    0.368508
    30  H   -0.027926
    31  H    0.543409
 Mulliken atomic charges:
              1
     1  C    0.003359
     2  C   -0.165183
     3  C   -0.159805
     4  C    0.253605
     5  C   -0.159992
     6  C   -0.166349
     7  H    0.205771
     8  H    0.197390
     9  H    0.204167
    10  H    0.206795
    11  C    0.289252
    12  N   -0.473178
    13  N   -0.635112
    14  C   -0.033823
    15  H    0.177430
    16  C   -0.043154
    17  H    0.189208
    18  C   -0.521578
    19  H    0.193468
    20  H    0.195943
    21  H    0.176993
    22  C   -0.541701
    23  H    0.199730
    24  H    0.195250
    25  H    0.185816
    26  C   -0.372751
    27  H    0.193001
    28  H    0.205329
    29  C   -0.394846
    30  H    0.198862
    31  H    0.196105
 Sum of Mulliken atomic charges =   0.00000
 Mulliken charges with hydrogens summed into heavy atoms:
              1
     1  C    0.003359
     2  C    0.040588
     3  C    0.037585
     4  C    0.253605
     5  C    0.044175
     6  C    0.040445
    11  C    0.289252
    12  N   -0.473178
    13  N   -0.635112
    14  C    0.143607
    16  C    0.146054
    18  C    0.044826
    22  C    0.039094
    26  C    0.025579
    29  C    0.000120
 Sum of Mulliken charges with hydrogens summed into heavy atoms =   0.00000
 Electronic spatial extent (au):  <R**2>=           3845.3639
 Charge=              0.0000 electrons
 Dipole moment (field-independent basis, Debye):
    X=              4.9493    Y=              0.0412    Z=             -0.4259  Tot=              4.9678
 Quadrupole moment (field-independent basis, Debye-Ang):
   XX=           -115.9773   YY=            -89.8451   ZZ=            -84.5445
   XY=             -0.7244   XZ=             -3.0662   YZ=              2.6736
 Traceless Quadrupole moment (field-independent basis, Debye-Ang):
   XX=            -19.1883   YY=              6.9439   ZZ=             12.2445
   XY=             -0.7244   XZ=             -3.0662   YZ=              2.6736
 Octapole moment (field-independent basis, Debye-Ang**2):
  XXX=            222.8576  YYY=              0.6537  ZZZ=             -0.2188  XYY=              8.5048
  XXY=              4.2842  XXZ=              7.6886  XZZ=             -6.6664  YZZ=              0.4398
  YYZ=             -1.1041  XYZ=             -5.6964
 Hexadecapole moment (field-independent basis, Debye-Ang**3):
 XXXX=          -5299.7278 YYYY=           -762.3492 ZZZZ=           -451.3450 XXXY=            -26.6640
 XXXZ=            -63.0327 YYYX=             -0.1957 YYYZ=             -2.1355 ZZZX=             -2.4953
 ZZZY=             18.8665 XXYY=           -788.3713 XXZZ=           -716.3184 YYZZ=           -206.7787
 XXYZ=             10.2479 YYXZ=             -3.3032 ZZXY=              4.0021
 N-N= 9.501261387868D+02 E-N=-3.316272923198D+03  KE= 6.066714997617D+02
 1|1|UNPC-DESKTOP-K2VF0AK|SP|RTD-B3LYP-FC|3-21G|C13H16N2|MELIH|25-Dec-2
 024|0||# td b3lyp/3-21g geom=connectivity||Title Card Required||0,1|C,
 0,-2.943293,-0.05849,-0.048277|C,0,-2.179331,-0.897453,-0.847724|C,0,-
 0.801097,-0.855898,-0.769595|C,0,-0.163673,0.01696,0.099134|C,0,-0.937
 887,0.853678,0.895838|C,0,-2.314723,0.81952,0.826975|H,0,-2.66436,-1.5
 74386,-1.521336|H,0,-0.199266,-1.498651,-1.376781|H,0,-0.457976,1.5334
 11,1.570807|H,0,-2.905777,1.466318,1.443216|C,0,-4.369183,-0.096558,-0
 .123399|N,0,-5.50781,-0.126747,-0.183141|N,0,1.259033,0.037899,0.14925
 7|C,0,1.99277009,0.76660383,-0.91221775|H,0,1.68070984,0.43838182,-1.9
 0266028|C,0,1.95908284,-1.22221029,0.53429766|H,0,1.36184889,-2.084373
 41,0.25932418|C,0,2.21014225,-1.2322221,2.04387016|H,0,2.82829793,-0.3
 8569109,2.3165696|H,0,1.2728233,-1.1582131,2.58307305|H,0,2.70791328,-
 2.1479969,2.34514598|C,0,1.79496247,2.27635678,-0.78261719|H,0,0.75649
 85,2.54681573,-0.9328413|H,0,2.09374495,2.59137819,0.20941335|H,0,2.39
 305786,2.80171194,-1.51948001|C,0,3.43586066,0.30804052,-0.65380916|H,
 0,4.0760074,0.46510309,-1.51187282|H,0,3.83472435,0.85589245,0.1912203
 5|C,0,3.2695165,-1.18167779,-0.29397169|H,0,4.10983874,-1.57670578,0.2
 6074885|H,0,3.15285214,-1.7616825,-1.20237149||Version=IA32W-G09RevA.0
 2|State=1-A|HF=-611.1472919|RMSD=3.801e-009|PG=C01 [X(C13H16N2)]||@


 FROM WHENCE IT HAPPENS, THAT THEY WHICH TRUST TO BOOKS, DO AS THEY THAT CAST UP MANY LITTLE SUMMS INTO GREATER,
 WITHOUT CONSIDERING WETHER THOSE LITTLE SUMMES WERE RIGHTLY CAST UP OR NOT...
 AND AT LAST FINDING THE ERROUR VISIBLE, AND NOT MISTRUSTING THEIR FIRST GROUNDS,
 KNOW NOT WHICH WAY TO CLEERE THEMSELVES...
 BUT SPEND TIME IN FLUTTERING OVER THEIR BOOKES....
 AS BIRDS THAT ENTERING BY THE CHIMNEY, AND FINDING THEMSELVES INCLOSED IN A CHAMBER,
 FLUTTER AT THE FALSE LIGHT OF A GLASSE WINDOW,
 FOR WANT OF WIT TO CONSIDER WHICH WAY THEY CAME IN....
           LEVIATHAN
 Job cpu time:  0 days  0 hours  6 minutes  6.0 seconds.
 File lengths (MBytes):  RWF=     64 Int=      0 D2E=      0 Chk=      5 Scr=      1
 Normal termination of Gaussian 09 at Wed Dec 25 18:59:11 2024.
