 Entering Link 1 = C:\G09W\l1.exe PID=     15016.
  
 Copyright (c) 1988,1990,1992,1993,1995,1998,2003,2009, Gaussian, Inc.
                  All Rights Reserved.
  
 This is part of the Gaussian(R) 09 program.  It is based on
 the Gaussian(R) 03 system (copyright 2003, Gaussian, Inc.),
 the Gaussian(R) 98 system (copyright 1998, Gaussian, Inc.),
 the Gaussian(R) 94 system (copyright 1995, Gaussian, Inc.),
 the Gaussian 92(TM) system (copyright 1992, Gaussian, Inc.),
 the Gaussian 90(TM) system (copyright 1990, Gaussian, Inc.),
 the Gaussian 88(TM) system (copyright 1988, Gaussian, Inc.),
 the Gaussian 86(TM) system (copyright 1986, Carnegie Mellon
 University), and the Gaussian 82(TM) system (copyright 1983,
 Carnegie Mellon University). Gaussian is a federally registered
 trademark of Gaussian, Inc.
  
 This software contains proprietary and confidential information,
 including trade secrets, belonging to Gaussian, Inc.
  
 This software is provided under written license and may be
 used, copied, transmitted, or stored only in accord with that
 written license.
  
 The following legend is applicable only to US Government
 contracts under FAR:
  
                    RESTRICTED RIGHTS LEGEND
  
 Use, reproduction and disclosure by the US Government is
 subject to restrictions as set forth in subparagraphs (a)
 and (c) of the Commercial Computer Software - Restricted
 Rights clause in FAR 52.227-19.
  
 Gaussian, Inc.
 340 Quinnipiac St., Bldg. 40, Wallingford CT 06492
  
  
 ---------------------------------------------------------------
 Warning -- This program may not be used in any manner that
 competes with the business of Gaussian, Inc. or will provide
 assistance to any competitor of Gaussian, Inc.  The licensee
 of this program is prohibited from giving any competitor of
 Gaussian, Inc. access to this program.  By using this program,
 the user acknowledges that Gaussian, Inc. is engaged in the
 business of creating and licensing software in the field of
 computational chemistry and represents and warrants to the
 licensee that it is not a competitor of Gaussian, Inc. and that
 it will not use this program in any manner prohibited above.
 ---------------------------------------------------------------
  

 Cite this work as:
 Gaussian 09, Revision A.02,
 M. J. Frisch, G. W. Trucks, H. B. Schlegel, G. E. Scuseria, 
 M. A. Robb, J. R. Cheeseman, G. Scalmani, V. Barone, B. Mennucci, 
 G. A. Petersson, H. Nakatsuji, M. Caricato, X. Li, H. P. Hratchian, 
 A. F. Izmaylov, J. Bloino, G. Zheng, J. L. Sonnenberg, M. Hada, 
 M. Ehara, K. Toyota, R. Fukuda, J. Hasegawa, M. Ishida, T. Nakajima, 
 Y. Honda, O. Kitao, H. Nakai, T. Vreven, J. A. Montgomery, Jr., 
 J. E. Peralta, F. Ogliaro, M. Bearpark, J. J. Heyd, E. Brothers, 
 K. N. Kudin, V. N. Staroverov, R. Kobayashi, J. Normand, 
 K. Raghavachari, A. Rendell, J. C. Burant, S. S. Iyengar, J. Tomasi, 
 M. Cossi, N. Rega, J. M. Millam, M. Klene, J. E. Knox, J. B. Cross, 
 V. Bakken, C. Adamo, J. Jaramillo, R. Gomperts, R. E. Stratmann, 
 O. Yazyev, A. J. Austin, R. Cammi, C. Pomelli, J. W. Ochterski, 
 R. L. Martin, K. Morokuma, V. G. Zakrzewski, G. A. Voth, 
 P. Salvador, J. J. Dannenberg, S. Dapprich, A. D. Daniels, 
 O. Farkas, J. B. Foresman, J. V. Ortiz, J. Cioslowski, 
 and D. J. Fox, Gaussian, Inc., Wallingford CT, 2009.
 
 ******************************************
 Gaussian 09:  IA32W-G09RevA.02 11-Jun-2009
                17-Dec-2024 
 ******************************************
 %chk=C:\G09W\Hw5\energy60.chk
 ----------------------------------
 # td b3lyp/3-21g geom=connectivity
 ----------------------------------
 1/38=1,57=2/1;
 2/12=2,17=6,18=5,40=1/2;
 3/5=5,11=2,16=1,25=1,30=1,74=-5/1,2,8,3;
 4//1;
 5/5=2,38=5/2;
 8/6=1,10=1/1;
 9/42=1/14;
 6/7=2,8=2,9=2,10=2/1;
 99/5=1,9=1/99;
 -------------------
 Title Card Required
 -------------------
 Symbolic Z-matrix:
 Charge =  0 Multiplicity = 1
 C                     2.9455    0.02475  -0.06303 
 C                     2.29381   0.42011   1.09697 
 C                     0.91368   0.41383   1.14754 
 C                     0.16328   0.01777   0.05076 
 C                     0.82551  -0.37641  -1.10697 
 C                     2.20314  -0.37535  -1.16798 
 H                     2.86648   0.72748   1.94833 
 H                     0.39757   0.7125    2.03548 
 H                     0.25766  -0.684    -1.96187 
 H                     2.70763  -0.68014  -2.06242 
 C                     4.37264   0.02815  -0.12219 
 N                     5.51224   0.03073  -0.16972 
 N                    -1.25788   0.02966   0.13558 
 C                    -1.96247  -1.25285   0.36977 
 H                    -1.65993  -2.00632  -0.35607 
 C                    -2.00352   0.8988   -0.82088 
 H                    -1.43685   1.02422  -1.73673 
 C                    -2.25848   2.26666  -0.18378 
 H                    -2.84661   2.14542   0.7176 
 H                    -1.32043   2.74029   0.0818 
 H                    -2.78944   2.91793  -0.87016 
 C                    -1.71108  -1.7698    1.78569 
 H                    -0.66323  -2.00218   1.93452 
 H                    -2.00082  -1.00909   2.49983 
 H                    -2.28818  -2.66988   1.9687 
 C                    -3.42167  -0.84999   0.10903 
 H                    -4.05368  -1.70503  -0.09144 
 H                    -3.80274  -0.32259   0.97502 
 C                    -3.30963   0.10835  -1.09324 
 H                    -4.16491   0.76335  -1.19007 
 H                    -3.21157  -0.46779  -2.00629 
 
                          Input orientation:                          
 ---------------------------------------------------------------------
 Center     Atomic      Atomic             Coordinates (Angstroms)
 Number     Number       Type             X           Y           Z
 ---------------------------------------------------------------------
      1          6           0        2.945496    0.024749   -0.063034
      2          6           0        2.293807    0.420107    1.096967
      3          6           0        0.913675    0.413832    1.147537
      4          6           0        0.163283    0.017767    0.050758
      5          6           0        0.825512   -0.376405   -1.106967
      6          6           0        2.203140   -0.375349   -1.167977
      7          1           0        2.866480    0.727479    1.948326
      8          1           0        0.397573    0.712497    2.035480
      9          1           0        0.257657   -0.683997   -1.961873
     10          1           0        2.707634   -0.680136   -2.062424
     11          6           0        4.372642    0.028150   -0.122190
     12          7           0        5.512241    0.030731   -0.169721
     13          7           0       -1.257881    0.029656    0.135581
     14          6           0       -1.962466   -1.252851    0.369767
     15          1           0       -1.659926   -2.006319   -0.356073
     16          6           0       -2.003520    0.898799   -0.820879
     17          1           0       -1.436851    1.024219   -1.736729
     18          6           0       -2.258475    2.266661   -0.183785
     19          1           0       -2.846608    2.145422    0.717603
     20          1           0       -1.320432    2.740290    0.081803
     21          1           0       -2.789438    2.917934   -0.870159
     22          6           0       -1.711075   -1.769804    1.785689
     23          1           0       -0.663233   -2.002182    1.934515
     24          1           0       -2.000824   -1.009089    2.499828
     25          1           0       -2.288178   -2.669881    1.968702
     26          6           0       -3.421673   -0.849988    0.109028
     27          1           0       -4.053683   -1.705035   -0.091440
     28          1           0       -3.802745   -0.322588    0.975019
     29          6           0       -3.309630    0.108353   -1.093239
     30          1           0       -4.164907    0.763354   -1.190073
     31          1           0       -3.211570   -0.467788   -2.006287
 ---------------------------------------------------------------------
                    Distance matrix (angstroms):
                    1          2          3          4          5
     1  C    0.000000
     2  C    1.388023   0.000000
     3  C    2.396907   1.381072   0.000000
     4  C    2.784548   2.407398   1.386679   0.000000
     5  C    2.396884   2.765438   2.390614   1.390772   0.000000
     6  C    1.389989   2.402279   2.765345   2.408500   1.378979
     7  H    2.132051   1.071095   2.133796   3.378125   3.836525
     8  H    3.371746   2.135884   1.069582   2.115813   3.353179
     9  H    3.366361   3.836855   3.362145   2.133556   1.071418
    10  H    2.133308   3.370985   3.836522   3.380285   2.132495
    11  C    1.428376   2.441624   3.704782   4.212923   3.703455
    12  N    2.568968   3.480579   4.798827   5.353516   4.796834
    13  N    4.208070   3.700163   2.426376   1.423743   2.459540
    14  C    5.089958   4.630710   3.413934   2.497007   3.274404
    15  H    5.041927   4.861160   3.839453   2.754365   3.065594
    16  C    5.082426   4.730148   3.552447   2.496198   3.116314
    17  H    4.796370   4.723621   3.770482   2.601631   2.734344
    18  C    5.667633   5.076747   3.907420   3.313223   4.165218
    19  H    6.217324   5.435485   4.162088   3.745803   4.813848
    20  H    5.058981   4.413223   3.396974   3.100727   3.966364
    21  H    6.473904   5.995674   4.904556   4.240002   4.896592
    22  C    5.321828   4.616182   3.473445   3.117470   4.091858
    23  H    4.595822   3.913190   2.990501   2.883030   3.756345
    24  H    5.665966   4.738616   3.513929   3.425746   4.625736
    25  H    6.227385   5.594867   4.520560   4.112375   4.941138
    26  C    6.429278   5.937666   4.633680   3.688944   4.443142
    27  H    7.209818   6.798468   5.540696   4.557529   5.157820
    28  H    6.836443   6.142834   4.776682   4.086499   5.075266
    29  C    6.339945   6.024342   4.790688   3.657602   4.163481
    30  H    7.236959   6.860274   5.601659   4.563857   5.119593
    31  H    6.475206   6.381827   5.267020   3.982064   4.137047
                    6          7          8          9         10
     6  C    0.000000
     7  H    3.371586   0.000000
     8  H    3.834790   2.470490   0.000000
     9  H    2.123779   4.907940   4.236579   0.000000
    10  H    1.071188   4.253555   4.905979   2.452043   0.000000
    11  C    2.441971   2.654171   4.574390   4.563408   2.653004
    12  N    3.480167   3.460005   5.611376   5.597615   3.457380
    13  N    3.720478   4.558877   2.610827   2.684301   4.589155
    14  C    4.526250   5.452731   3.493849   3.269417   5.296545
    15  H    4.271128   5.768211   4.164708   2.829179   4.872985
    16  C    4.409072   5.604886   3.736140   2.986642   5.121469
    17  H    3.941041   5.673301   4.206167   2.416620   4.493068
    18  C    5.277771   5.760221   3.794095   4.266017   6.072490
    19  H    5.950601   6.013702   3.783488   4.982135   6.823631
    20  H    4.866695   5.006551   3.298536   4.288673   5.702836
    21  H    5.988342   6.688150   4.843937   4.842575   6.677230
    22  C    5.098013   5.216981   3.266590   4.370253   5.959895
    23  H    4.526382   4.462075   2.916331   4.215150   5.393150
    24  H    5.614956   5.197160   2.988609   5.011307   6.564444
    25  H    5.939324   6.173570   4.319514   5.086692   6.720655
    26  C    5.787447   6.738864   4.554033   4.225359   6.504803
    27  H    6.486512   7.613569   5.493808   4.809230   7.116924
    28  H    6.376980   6.821182   4.454060   5.024223   7.192978
    29  C    5.534454   6.912218   4.888478   3.756046   6.145608
    30  H    6.469092   7.700080   5.587755   4.716945   7.076473
    31  H    5.480000   7.349171   5.545707   3.476242   5.923278
                   11         12         13         14         15
    11  C    0.000000
    12  N    1.140593   0.000000
    13  N    5.636421   6.777002   0.000000
    14  C    6.482020   7.603281   1.481927   0.000000
    15  H    6.370686   7.458169   2.132735   1.089077   0.000000
    16  C    6.473148   7.593696   1.492047   2.459455   2.962062
    17  H    6.111391   7.192525   2.127611   3.146210   3.337684
    18  C    6.999031   8.086013   2.471310   3.575053   4.318137
    19  H    7.570050   8.667734   2.709109   3.528591   4.449489
    20  H    6.309391   7.354618   2.711889   4.054665   4.778838
    21  H    7.759233   8.817280   3.420428   4.429079   5.078224
    22  C    6.624520   7.696873   2.483204   1.528161   2.155389
    23  H    5.806231   6.833522   2.778154   2.167474   2.498041
    24  H    6.969355   8.040763   2.687121   2.144307   3.044150
    25  H    7.484499   8.527174   3.421892   2.161171   2.497918
    26  C    7.847034   8.981547   2.335910   1.536088   2.158049
    27  H    8.602781   9.722444   3.298060   2.188691   2.427113
    28  H    8.256139   9.391710   2.702788   2.149033   3.032891
    29  C    7.743815   8.870418   2.392878   2.410002   2.781506
    30  H    8.635429   9.758332   3.278181   3.368816   3.826431
    31  H    7.830457   8.928963   2.941419   2.796822   2.738226
                   16         17         18         19         20
    16  C    0.000000
    17  H    1.084262   0.000000
    18  C    1.530340   2.151828   0.000000
    19  H    2.152161   3.044381   1.083097   0.000000
    20  H    2.161605   2.503100   1.083875   1.757078   0.000000
    21  H    2.167257   2.483262   1.084983   1.766645   1.759479
    22  C    3.741813   4.504352   4.524547   4.214171   4.837022
    23  H    4.219509   4.820334   5.025437   4.842584   5.133761
    24  H    3.829770   4.732950   4.242487   3.720566   4.513050
    25  H    4.538532   5.301071   5.385493   5.006420   5.810927
    26  C    2.436009   3.295297   3.339501   3.110232   4.160054
    27  H    3.393406   4.123544   4.359549   4.115532   5.221263
    28  H    2.820327   3.842514   3.229830   2.659235   4.042392
    29  C    1.550776   2.181785   2.567163   2.764631   3.502102
    30  H    2.196871   2.794489   2.628123   2.699491   3.690119
    31  H    2.175347   2.334175   3.421566   3.792313   4.269460
                   21         22         23         24         25
    21  H    0.000000
    22  C    5.494660   0.000000
    23  H    6.049338   1.083570   0.000000
    24  H    5.234523   1.082883   1.759251   0.000000
    25  H    6.287613   1.084749   1.757111   1.767172   0.000000
    26  C    3.944080   2.565814   3.502706   2.785686   2.838170
    27  H    4.855571   3.002602   3.960801   3.378348   2.879604
    28  H    3.864254   2.669589   3.687575   2.458301   2.964980
    29  C    2.866026   3.790920   4.541483   3.983939   4.258806
    30  H    2.576136   4.614471   5.447290   4.630354   5.028626
    31  H    3.596122   4.280866   4.937440   4.697231   4.637068
                   26         27         28         29         30
    26  C    0.000000
    27  H    1.082003   0.000000
    28  H    1.083193   1.763934   0.000000
    29  C    1.541563   2.201271   2.169461   0.000000
    30  H    2.200666   2.704128   2.449093   1.081620   0.000000
    31  H    2.159809   2.430344   3.042820   1.084072   1.758057
                   31
    31  H    0.000000
 Stoichiometry    C13H16N2
 Framework group  C1[X(C13H16N2)]
 Deg. of freedom    87
 Full point group                 C1      NOp   1
 Largest Abelian subgroup         C1      NOp   1
 Largest concise Abelian subgroup C1      NOp   1
                         Standard orientation:                         
 ---------------------------------------------------------------------
 Center     Atomic      Atomic             Coordinates (Angstroms)
 Number     Number       Type             X           Y           Z
 ---------------------------------------------------------------------
      1          6           0       -2.945421   -0.048370   -0.051493
      2          6           0       -2.296687    0.358538    1.106168
      3          6           0       -0.916487    0.376308    1.151936
      4          6           0       -0.163126   -0.009573    0.053563
      5          6           0       -0.822411   -0.415843   -1.101657
      6          6           0       -2.200056   -0.436091   -1.158819
      7          1           0       -2.871664    0.657993    1.958795
      8          1           0       -0.402589    0.690648    2.035737
      9          1           0       -0.252257   -0.717275   -1.957227
     10          1           0       -2.702273   -0.749870   -2.051437
     11          6           0       -4.372609   -0.068620   -0.106108
     12          7           0       -5.512239   -0.084869   -0.150033
     13          7           0        1.257917    0.014849    0.137729
     14          6           0        1.982546    1.153030   -0.475102
     15          1           0        1.689536    1.292180   -1.514751
     16          6           0        1.987671   -1.271301   -0.060966
     17          1           0        1.416690   -1.933540   -0.702092
     18          6           0        2.223524   -1.944994    1.292715
     19          1           0        2.815864   -1.295342    1.925316
     20          1           0        1.279110   -2.136250    1.788991
     21          1           0        2.742668   -2.889425    1.167308
     22          6           0        1.742868    2.444417    0.306020
     23          1           0        0.699085    2.733030    0.269392
     24          1           0        2.022948    2.292474    1.340962
     25          1           0        2.334079    3.253738   -0.108889
     26          6           0        3.434751    0.655818   -0.416370
     27          1           0        4.079142    1.189733   -1.102246
     28          1           0        3.810099    0.779665    0.592135
     29          6           0        3.304905   -0.841872   -0.757665
     30          1           0        4.149862   -1.425418   -0.417926
     31          1           0        3.213150   -0.960884   -1.831270
 ---------------------------------------------------------------------
 Rotational constants (GHZ):      1.4282616      0.3123876      0.2950112
 Standard basis: 3-21G (6D, 7F)
 There are   167 symmetry adapted basis functions of A   symmetry.
 Integral buffers will be    262144 words long.
 Raffenetti 2 integral format.
 Two-electron integral symmetry is turned on.
   167 basis functions,   273 primitive gaussians,   167 cartesian basis functions
    54 alpha electrons       54 beta electrons
       nuclear repulsion energy       949.9462906900 Hartrees.
 NAtoms=   31 NActive=   31 NUniq=   31 SFac= 7.50D-01 NAtFMM=   80 NAOKFM=F Big=F
 One-electron integrals computed using PRISM.
 NBasis=   167 RedAO= T  NBF=   167
 NBsUse=   167 1.00D-06 NBFU=   167
 Harris functional with IExCor=  402 diagonalized for initial guess.
 ExpMin= 1.83D-01 ExpMax= 2.43D+02 ExpMxC= 2.43D+02 IAcc=1 IRadAn=         1 AccDes= 0.00D+00
 HarFok:  IExCor=  402 AccDes= 0.00D+00 IRadAn=         1 IDoV= 1
 ScaDFX=  1.000000  1.000000  1.000000  1.000000
 FoFCou: FMM=F IPFlag=           0 FMFlag=      100000 FMFlg1=           0
         NFxFlg=           0 DoJE=T BraDBF=F KetDBF=T FulRan=T
         Omega=  0.000000  0.000000  1.000000  0.000000  0.000000 ICntrl=     500 IOpCl=  0
         NMat0=    1 NMatS0=    1 NMatT0=    0 NMatD0=    1 NMtDS0=    0 NMtDT0=    0
         I1Cent=           4 NGrid=           0.
 Petite list used in FoFCou.
 Initial guess orbital symmetries:
       Occupied  (A) (A) (A) (A) (A) (A) (A) (A) (A) (A) (A) (A)
                 (A) (A) (A) (A) (A) (A) (A) (A) (A) (A) (A) (A)
                 (A) (A) (A) (A) (A) (A) (A) (A) (A) (A) (A) (A)
                 (A) (A) (A) (A) (A) (A) (A) (A) (A) (A) (A) (A)
                 (A) (A) (A) (A) (A) (A)
       Virtual   (A) (A) (A) (A) (A) (A) (A) (A) (A) (A) (A) (A)
                 (A) (A) (A) (A) (A) (A) (A) (A) (A) (A) (A) (A)
                 (A) (A) (A) (A) (A) (A) (A) (A) (A) (A) (A) (A)
                 (A) (A) (A) (A) (A) (A) (A) (A) (A) (A) (A) (A)
                 (A) (A) (A) (A) (A) (A) (A) (A) (A) (A) (A) (A)
                 (A) (A) (A) (A) (A) (A) (A) (A) (A) (A) (A) (A)
                 (A) (A) (A) (A) (A) (A) (A) (A) (A) (A) (A) (A)
                 (A) (A) (A) (A) (A) (A) (A) (A) (A) (A) (A) (A)
                 (A) (A) (A) (A) (A) (A) (A) (A) (A) (A) (A) (A)
                 (A) (A) (A) (A) (A)
 The electronic state of the initial guess is 1-A.
 Requested convergence on RMS density matrix=1.00D-08 within 128 cycles.
 Requested convergence on MAX density matrix=1.00D-06.
 Requested convergence on             energy=1.00D-06.
 No special actions if energy rises.
 Integral accuracy reduced to 1.0D-05 until final iterations.
 Initial convergence to 1.0D-05 achieved.  Increase integral accuracy.
 SCF Done:  E(RB3LYP) =  -611.147879765     A.U. after   16 cycles
             Convg  =    0.3810D-08             -V/T =  2.0074
 ExpMin= 1.83D-01 ExpMax= 2.43D+02 ExpMxC= 2.43D+02 IAcc=1 IRadAn=         1 AccDes= 0.00D+00
 HarFok:  IExCor=  205 AccDes= 0.00D+00 IRadAn=         1 IDoV=-2
 ScaDFX=  1.000000  1.000000  1.000000  1.000000
 Range of M.O.s used for correlation:    16   167
 NBasis=   167 NAE=    54 NBE=    54 NFC=    15 NFV=     0
 NROrb=    152 NOA=    39 NOB=    39 NVA=   113 NVB=   113
 Would need an additional   268100000 words for in-memory AO integral storage.
 Orbital symmetries:
       Occupied  (A) (A) (A) (A) (A) (A) (A) (A) (A) (A) (A) (A)
                 (A) (A) (A) (A) (A) (A) (A) (A) (A) (A) (A) (A)
                 (A) (A) (A) (A) (A) (A) (A) (A) (A) (A) (A) (A)
                 (A) (A) (A) (A) (A) (A) (A) (A) (A) (A) (A) (A)
                 (A) (A) (A) (A) (A) (A)
       Virtual   (A) (A) (A) (A) (A) (A) (A) (A) (A) (A) (A) (A)
                 (A) (A) (A) (A) (A) (A) (A) (A) (A) (A) (A) (A)
                 (A) (A) (A) (A) (A) (A) (A) (A) (A) (A) (A) (A)
                 (A) (A) (A) (A) (A) (A) (A) (A) (A) (A) (A) (A)
                 (A) (A) (A) (A) (A) (A) (A) (A) (A) (A) (A) (A)
                 (A) (A) (A) (A) (A) (A) (A) (A) (A) (A) (A) (A)
                 (A) (A) (A) (A) (A) (A) (A) (A) (A) (A) (A) (A)
                 (A) (A) (A) (A) (A) (A) (A) (A) (A) (A) (A) (A)
                 (A) (A) (A) (A) (A) (A) (A) (A) (A) (A) (A) (A)
                 (A) (A) (A) (A) (A)
    12 initial guesses have been made.
 Convergence on wavefunction:    0.001000000000000
 Iteration     1 Dimension    12 NMult    12
 CISAX will form    12 AO SS matrices at one time.
 No map to state      3
 Iteration     2 Dimension    18 NMult    18
 Iteration     3 Dimension    24 NMult    24
 Iteration     4 Dimension    30 NMult    30
 Iteration     5 Dimension    34 NMult    34
 Iteration     6 Dimension    36 NMult    36
 ***********************************************************************
 Excited states from <AA,BB:AA,BB> singles matrix:
 ***********************************************************************
 
 Ground to excited state transition electric dipole moments (Au):
       state          X           Y           Z        Dip. S.      Osc.
         1        -0.4504     -0.0118     -0.0226      0.2035      0.0179
         2         0.0283     -0.0043     -0.0746      0.0064      0.0007
         3         0.0872     -0.0445     -0.1450      0.0306      0.0041
 Ground to excited state transition velocity dipole moments (Au):
       state          X           Y           Z        Dip. S.      Osc.
         1         0.0488      0.0028      0.0011      0.0024      0.0121
         2        -0.0048     -0.0021      0.0111      0.0002      0.0006
         3        -0.0156      0.0066      0.0231      0.0008      0.0027
 Ground to excited state transition magnetic dipole moments (Au):
       state          X           Y           Z
         1         0.2766      0.0118     -0.0855
         2         0.0749      0.1266     -0.2479
         3         0.0174     -0.0134     -0.0255
 <0|del|b> * <b|rxdel|0> + <0|del|b> * <b|delr+rdel|0>
 Rotatory Strengths (R) in cgs (10**-40 erg-esu-cm/Gauss)
       state          XX          YY          ZZ    R(velocity)
         1        -0.0617     33.8999     38.0958     23.9780
 Total R(velocity) tensor for State=          1
                 1             2             3 
      1  -0.617218D-01 -0.198307D+01  0.810540D+01
      2  -0.173091D+01  0.338999D+02 -0.906948D+01
      3  -0.789194D+00 -0.535987D+00  0.380958D+02
 R(velocity) tensor in inp. orien. for State=          1
                 1             2             3 
      1   0.519376D-01 -0.722476D+01 -0.511719D+01
      2  -0.144974D+01  0.400991D+02  0.729480D+01
      3   0.180061D+01 -0.111894D+01  0.317829D+02
         2        -6.3328     -7.7188     -1.0218     -5.0244
 Total R(velocity) tensor for State=          2
                 1             2             3 
      1  -0.633281D+01  0.120724D+01 -0.254545D+01
      2   0.845444D+00 -0.771878D+01 -0.109108D+01
      3  -0.132393D+01 -0.233358D+01 -0.102176D+01
 R(velocity) tensor in inp. orien. for State=          2
                 1             2             3 
      1  -0.638884D+01  0.249921D+01  0.119075D+01
      2   0.145040D+01 -0.337542D+01  0.303626D+01
      3   0.443943D+00  0.426471D+01 -0.530908D+01
         3        -1.4453     -0.1196     -1.8075     -1.1241
 Total R(velocity) tensor for State=          3
                 1             2             3 
      1  -0.144528D+01 -0.748034D+00 -0.765856D+00
      2  -0.869574D+00 -0.119577D+00 -0.554786D+00
      3  -0.453013D+00  0.527650D+01 -0.180750D+01
 R(velocity) tensor in inp. orien. for State=          3
                 1             2             3 
      1  -0.143260D+01 -0.923356D-01  0.104826D+01
      2  -0.366890D+00 -0.308840D+01  0.159039D+01
      3   0.968512D+00 -0.424355D+01  0.114864D+01
 1/2[<0|r|b>*<b|rxdel|0> + (<0|rxdel|b>*<b|r|0>)*]
 Rotatory Strengths (R) in cgs (10**-40 erg-esu-cm/Gauss)
       state          XX          YY          ZZ     R(length)     R(au)
         1        88.1120      0.0985     -1.3667     28.9479      0.0614
         2        -1.4975      0.3858    -13.0786     -4.7301     -0.0100
         3        -1.0724     -0.4208     -2.6161     -1.3698     -0.0029
  1/2[<0|del|b>*<b|r|0> + (<0|r|b>*<b|del|0>)*] (Au)
       state          X           Y           Z        Dip. S.   Osc.(frdel)
         1        -0.0220      0.0000      0.0000      0.0220      0.0147
         2        -0.0001      0.0000     -0.0008      0.0010      0.0006
         3        -0.0014     -0.0003     -0.0033      0.0050      0.0033
 Ground to excited state transition densities written to RWF  633

 Excitation energies and oscillator strengths:
 
 Excited State   1:      Singlet-A      3.5975 eV  344.64 nm  f=0.0179  <S**2>=0.000
      54 -> 55         0.70183
 This state for optimization and/or second-order correction.
 Copying the excited state density for this state as the 1-particle RhoCI density.
 
 Excited State   2:      Singlet-A      4.3004 eV  288.31 nm  f=0.0007  <S**2>=0.000
      54 -> 56         0.70512
 
 Excited State   3:      Singlet-A      5.4132 eV  229.04 nm  f=0.0041  <S**2>=0.000
      52 -> 55         0.53554
      53 -> 56         0.45726
 SavETr:  write IOETrn=   770 NScale= 10 NData=  16 NLR=1 LETran=      62.

 **********************************************************************

            Population analysis using the SCF density.

 **********************************************************************

 Orbital symmetries:
       Occupied  (A) (A) (A) (A) (A) (A) (A) (A) (A) (A) (A) (A)
                 (A) (A) (A) (A) (A) (A) (A) (A) (A) (A) (A) (A)
                 (A) (A) (A) (A) (A) (A) (A) (A) (A) (A) (A) (A)
                 (A) (A) (A) (A) (A) (A) (A) (A) (A) (A) (A) (A)
                 (A) (A) (A) (A) (A) (A)
       Virtual   (A) (A) (A) (A) (A) (A) (A) (A) (A) (A) (A) (A)
                 (A) (A) (A) (A) (A) (A) (A) (A) (A) (A) (A) (A)
                 (A) (A) (A) (A) (A) (A) (A) (A) (A) (A) (A) (A)
                 (A) (A) (A) (A) (A) (A) (A) (A) (A) (A) (A) (A)
                 (A) (A) (A) (A) (A) (A) (A) (A) (A) (A) (A) (A)
                 (A) (A) (A) (A) (A) (A) (A) (A) (A) (A) (A) (A)
                 (A) (A) (A) (A) (A) (A) (A) (A) (A) (A) (A) (A)
                 (A) (A) (A) (A) (A) (A) (A) (A) (A) (A) (A) (A)
                 (A) (A) (A) (A) (A) (A) (A) (A) (A) (A) (A) (A)
                 (A) (A) (A) (A) (A)
 The electronic state is 1-A.
 Alpha  occ. eigenvalues --  -14.24690 -14.24413 -10.17439 -10.17324 -10.15724
 Alpha  occ. eigenvalues --  -10.15701 -10.15676 -10.15031 -10.14916 -10.14133
 Alpha  occ. eigenvalues --  -10.13754 -10.12254 -10.12110 -10.10759 -10.10373
 Alpha  occ. eigenvalues --   -0.94825  -0.93419  -0.88573  -0.81118  -0.78173
 Alpha  occ. eigenvalues --   -0.77534  -0.75552  -0.71380  -0.65167  -0.64957
 Alpha  occ. eigenvalues --   -0.63881  -0.58462  -0.57609  -0.56932  -0.52881
 Alpha  occ. eigenvalues --   -0.49842  -0.47967  -0.46823  -0.45332  -0.45044
 Alpha  occ. eigenvalues --   -0.43662  -0.43546  -0.41197  -0.40998  -0.40022
 Alpha  occ. eigenvalues --   -0.38815  -0.38189  -0.37226  -0.36824  -0.36461
 Alpha  occ. eigenvalues --   -0.34406  -0.34280  -0.33777  -0.33559  -0.33185
 Alpha  occ. eigenvalues --   -0.33040  -0.27547  -0.26189  -0.20575
 Alpha virt. eigenvalues --   -0.03959  -0.01413   0.05459   0.08867   0.09978
 Alpha virt. eigenvalues --    0.10730   0.12155   0.13622   0.14526   0.15209
 Alpha virt. eigenvalues --    0.16284   0.16887   0.17380   0.17956   0.19022
 Alpha virt. eigenvalues --    0.19431   0.19865   0.20421   0.21194   0.21759
 Alpha virt. eigenvalues --    0.22341   0.22836   0.23418   0.23903   0.24498
 Alpha virt. eigenvalues --    0.26320   0.27844   0.29859   0.31081   0.33254
 Alpha virt. eigenvalues --    0.33552   0.35542   0.38187   0.39496   0.50373
 Alpha virt. eigenvalues --    0.53901   0.59582   0.64385   0.65917   0.66157
 Alpha virt. eigenvalues --    0.67823   0.69019   0.70057   0.70509   0.71388
 Alpha virt. eigenvalues --    0.71901   0.73009   0.73729   0.75009   0.75678
 Alpha virt. eigenvalues --    0.75978   0.76645   0.77511   0.78293   0.79129
 Alpha virt. eigenvalues --    0.80369   0.81252   0.83641   0.84559   0.86582
 Alpha virt. eigenvalues --    0.90448   0.90994   0.93461   0.93688   0.95198
 Alpha virt. eigenvalues --    0.95961   0.96892   0.99596   1.00027   1.00365
 Alpha virt. eigenvalues --    1.00891   1.04547   1.05654   1.06721   1.07670
 Alpha virt. eigenvalues --    1.08049   1.09111   1.10000   1.12521   1.12669
 Alpha virt. eigenvalues --    1.13393   1.14333   1.16644   1.17130   1.18417
 Alpha virt. eigenvalues --    1.18708   1.20783   1.24651   1.28283   1.28728
 Alpha virt. eigenvalues --    1.33673   1.35212   1.41059   1.41181   1.49802
 Alpha virt. eigenvalues --    1.51245   1.52681   1.54331   1.56508   1.62506
 Alpha virt. eigenvalues --    1.73696   1.75993   1.78600   1.83189   1.93095
 Alpha virt. eigenvalues --    1.96153   1.98875   2.20281   2.37910   2.43850
 Alpha virt. eigenvalues --    2.50493   2.96946   2.99869
          Condensed to atoms (all electrons):
              1          2          3          4          5          6
     1  C    5.428858   0.445883  -0.083802  -0.030589  -0.083977   0.445913
     2  C    0.445883   5.183495   0.399793  -0.071506  -0.018476  -0.061094
     3  C   -0.083802   0.399793   5.238035   0.447178  -0.113922  -0.021484
     4  C   -0.030589  -0.071506   0.447178   5.010003   0.342296  -0.047707
     5  C   -0.083977  -0.018476  -0.113922   0.342296   5.348602   0.381843
     6  C    0.445913  -0.061094  -0.021484  -0.047707   0.381843   5.184377
     7  H   -0.044143   0.396108  -0.032688   0.004151  -0.000296   0.003836
     8  H    0.004611  -0.037223   0.379163  -0.042536   0.006154  -0.000506
     9  H    0.004637  -0.000165   0.004052  -0.049106   0.396557  -0.042568
    10  H   -0.043066   0.003768  -0.000214   0.003533  -0.032501   0.395765
    11  C    0.069685  -0.077584   0.004091  -0.000132   0.004497  -0.077402
    12  N   -0.117057  -0.000778  -0.000006   0.000000  -0.000007  -0.000788
    13  N   -0.000328   0.004534  -0.069886   0.322701  -0.071892   0.005059
    14  C    0.000010  -0.000104  -0.000107  -0.069855  -0.001553   0.000177
    15  H   -0.000002   0.000034  -0.000303  -0.003881   0.004993  -0.000293
    16  C    0.000004  -0.000124   0.001656  -0.071775  -0.004154   0.000319
    17  H    0.000004   0.000029  -0.000397  -0.003859   0.005088  -0.000578
    18  C    0.000000   0.000000   0.000483  -0.000416  -0.000387   0.000012
    19  H    0.000000   0.000002  -0.000018   0.000021   0.000011   0.000000
    20  H   -0.000003   0.000020   0.000783   0.002444   0.000094  -0.000010
    21  H    0.000000   0.000000  -0.000024   0.000017   0.000013  -0.000001
    22  C    0.000001  -0.000015   0.000556  -0.004016  -0.000691   0.000013
    23  H   -0.000013   0.000024   0.002281   0.003133  -0.000026  -0.000010
    24  H    0.000000   0.000027  -0.000053  -0.000033   0.000057  -0.000002
    25  H    0.000000   0.000001  -0.000025   0.000133   0.000020  -0.000001
    26  C    0.000000   0.000001  -0.000097   0.005374  -0.000073   0.000000
    27  H    0.000000   0.000000  -0.000001  -0.000084   0.000005   0.000000
    28  H    0.000000   0.000000   0.000004  -0.000147   0.000002   0.000000
    29  C    0.000000   0.000001  -0.000072   0.004901  -0.000106   0.000001
    30  H    0.000000   0.000000   0.000001  -0.000062   0.000000   0.000000
    31  H    0.000000   0.000000   0.000002  -0.000202   0.000031   0.000000
              7          8          9         10         11         12
     1  C   -0.044143   0.004611   0.004637  -0.043066   0.069685  -0.117057
     2  C    0.396108  -0.037223  -0.000165   0.003768  -0.077584  -0.000778
     3  C   -0.032688   0.379163   0.004052  -0.000214   0.004091  -0.000006
     4  C    0.004151  -0.042536  -0.049106   0.003533  -0.000132   0.000000
     5  C   -0.000296   0.006154   0.396557  -0.032501   0.004497  -0.000007
     6  C    0.003836  -0.000506  -0.042568   0.395765  -0.077402  -0.000788
     7  H    0.477525  -0.004352   0.000002  -0.000051  -0.006304  -0.000109
     8  H   -0.004352   0.487885  -0.000043   0.000003  -0.000072   0.000000
     9  H    0.000002  -0.000043   0.495971  -0.004092  -0.000082   0.000000
    10  H   -0.000051   0.000003  -0.004092   0.477040  -0.006141  -0.000105
    11  C   -0.006304  -0.000072  -0.000082  -0.006141   4.954870   0.845367
    12  N   -0.000109   0.000000   0.000000  -0.000105   0.845367   6.746739
    13  N   -0.000021   0.000782  -0.007494  -0.000020   0.000000   0.000000
    14  C    0.000001  -0.000181   0.000704   0.000000   0.000000   0.000000
    15  H    0.000000   0.000082   0.001380   0.000002   0.000000   0.000000
    16  C    0.000001  -0.000157   0.001073  -0.000001   0.000000   0.000000
    17  H    0.000000   0.000050   0.002543   0.000006   0.000000   0.000000
    18  C    0.000000  -0.000051  -0.000046   0.000000   0.000000   0.000000
    19  H    0.000000   0.000090   0.000001   0.000000   0.000000   0.000000
    20  H   -0.000001   0.000167  -0.000003   0.000000   0.000000   0.000000
    21  H    0.000000   0.000007   0.000003   0.000000   0.000000   0.000000
    22  C   -0.000001  -0.000006  -0.000046   0.000000   0.000000   0.000000
    23  H   -0.000002  -0.000049  -0.000005   0.000000   0.000000   0.000000
    24  H    0.000000   0.001035   0.000001   0.000000   0.000000   0.000000
    25  H    0.000000   0.000026   0.000001   0.000000   0.000000   0.000000
    26  C    0.000000  -0.000022  -0.000081   0.000000   0.000000   0.000000
    27  H    0.000000   0.000000   0.000001   0.000000   0.000000   0.000000
    28  H    0.000000   0.000008   0.000002   0.000000   0.000000   0.000000
    29  C    0.000000  -0.000005  -0.000067   0.000000   0.000000   0.000000
    30  H    0.000000   0.000000   0.000000   0.000000   0.000000   0.000000
    31  H    0.000000   0.000000   0.000173   0.000000   0.000000   0.000000
             13         14         15         16         17         18
     1  C   -0.000328   0.000010  -0.000002   0.000004   0.000004   0.000000
     2  C    0.004534  -0.000104   0.000034  -0.000124   0.000029   0.000000
     3  C   -0.069886  -0.000107  -0.000303   0.001656  -0.000397   0.000483
     4  C    0.322701  -0.069855  -0.003881  -0.071775  -0.003859  -0.000416
     5  C   -0.071892  -0.001553   0.004993  -0.004154   0.005088  -0.000387
     6  C    0.005059   0.000177  -0.000293   0.000319  -0.000578   0.000012
     7  H   -0.000021   0.000001   0.000000   0.000001   0.000000   0.000000
     8  H    0.000782  -0.000181   0.000082  -0.000157   0.000050  -0.000051
     9  H   -0.007494   0.000704   0.001380   0.001073   0.002543  -0.000046
    10  H   -0.000020   0.000000   0.000002  -0.000001   0.000006   0.000000
    11  C    0.000000   0.000000   0.000000   0.000000   0.000000   0.000000
    12  N    0.000000   0.000000   0.000000   0.000000   0.000000   0.000000
    13  N    7.231441   0.271722  -0.049180   0.267129  -0.042136  -0.066778
    14  C    0.271722   5.292988   0.352726  -0.083235   0.001356   0.005030
    15  H   -0.049180   0.352726   0.620077   0.000509   0.000995  -0.000267
    16  C    0.267129  -0.083235   0.000509   5.296161   0.368419   0.271619
    17  H   -0.042136   0.001356   0.000995   0.368419   0.573293  -0.063200
    18  C   -0.066778   0.005030  -0.000267   0.271619  -0.063200   5.385585
    19  H    0.002769   0.000189   0.000027  -0.043147   0.004149   0.362486
    20  H   -0.001356   0.000008   0.000000  -0.037719  -0.001595   0.366530
    21  H    0.003163  -0.000131   0.000010  -0.037144   0.002329   0.334302
    22  C   -0.060889   0.278956  -0.064209   0.004816  -0.000151  -0.000068
    23  H   -0.002656  -0.038167  -0.002597   0.000000  -0.000003   0.000003
    24  H    0.004591  -0.041665   0.004837  -0.000009   0.000009  -0.000053
    25  H    0.002810  -0.037010   0.002584  -0.000097   0.000003  -0.000001
    26  C   -0.067834   0.268564  -0.048700  -0.090653   0.004970   0.000522
    27  H    0.002627  -0.036384  -0.000897   0.003949  -0.000034  -0.000109
    28  H    0.001670  -0.045848   0.004405   0.000506   0.000024   0.000758
    29  C   -0.049948  -0.089403  -0.002047   0.273452  -0.037528  -0.075667
    30  H    0.002277   0.004259  -0.000129  -0.039008   0.001251  -0.001881
    31  H    0.001334   0.000981   0.002032  -0.038884  -0.004640   0.003593
             19         20         21         22         23         24
     1  C    0.000000  -0.000003   0.000000   0.000001  -0.000013   0.000000
     2  C    0.000002   0.000020   0.000000  -0.000015   0.000024   0.000027
     3  C   -0.000018   0.000783  -0.000024   0.000556   0.002281  -0.000053
     4  C    0.000021   0.002444   0.000017  -0.004016   0.003133  -0.000033
     5  C    0.000011   0.000094   0.000013  -0.000691  -0.000026   0.000057
     6  C    0.000000  -0.000010  -0.000001   0.000013  -0.000010  -0.000002
     7  H    0.000000  -0.000001   0.000000  -0.000001  -0.000002   0.000000
     8  H    0.000090   0.000167   0.000007  -0.000006  -0.000049   0.001035
     9  H    0.000001  -0.000003   0.000003  -0.000046  -0.000005   0.000001
    10  H    0.000000   0.000000   0.000000   0.000000   0.000000   0.000000
    11  C    0.000000   0.000000   0.000000   0.000000   0.000000   0.000000
    12  N    0.000000   0.000000   0.000000   0.000000   0.000000   0.000000
    13  N    0.002769  -0.001356   0.003163  -0.060889  -0.002656   0.004591
    14  C    0.000189   0.000008  -0.000131   0.278956  -0.038167  -0.041665
    15  H    0.000027   0.000000   0.000010  -0.064209  -0.002597   0.004837
    16  C   -0.043147  -0.037719  -0.037144   0.004816   0.000000  -0.000009
    17  H    0.004149  -0.001595   0.002329  -0.000151  -0.000003   0.000009
    18  C    0.362486   0.366530   0.334302  -0.000068   0.000003  -0.000053
    19  H    0.530467  -0.026720  -0.024301  -0.000108  -0.000001   0.000110
    20  H   -0.026720   0.524607  -0.027130  -0.000001   0.000000   0.000002
    21  H   -0.024301  -0.027130   0.570531  -0.000002   0.000000   0.000002
    22  C   -0.000108  -0.000001  -0.000002   5.377795   0.367039   0.353872
    23  H   -0.000001   0.000000   0.000000   0.367039   0.522779  -0.027453
    24  H    0.000110   0.000002   0.000002   0.353872  -0.027453   0.531781
    25  H    0.000002   0.000000   0.000000   0.345550  -0.027983  -0.022569
    26  C    0.001727  -0.000169   0.000246  -0.056431   0.003866  -0.004793
    27  H   -0.000013   0.000002   0.000003  -0.000007  -0.000081   0.000040
    28  H    0.001840  -0.000042   0.000066  -0.004933   0.000031   0.005448
    29  C   -0.003387   0.003887  -0.000528   0.005077  -0.000142  -0.000062
    30  H    0.000541   0.000083   0.001414  -0.000067   0.000001  -0.000003
    31  H    0.000031  -0.000089   0.000002  -0.000054   0.000003   0.000002
             25         26         27         28         29         30
     1  C    0.000000   0.000000   0.000000   0.000000   0.000000   0.000000
     2  C    0.000001   0.000001   0.000000   0.000000   0.000001   0.000000
     3  C   -0.000025  -0.000097  -0.000001   0.000004  -0.000072   0.000001
     4  C    0.000133   0.005374  -0.000084  -0.000147   0.004901  -0.000062
     5  C    0.000020  -0.000073   0.000005   0.000002  -0.000106   0.000000
     6  C   -0.000001   0.000000   0.000000   0.000000   0.000001   0.000000
     7  H    0.000000   0.000000   0.000000   0.000000   0.000000   0.000000
     8  H    0.000026  -0.000022   0.000000   0.000008  -0.000005   0.000000
     9  H    0.000001  -0.000081   0.000001   0.000002  -0.000067   0.000000
    10  H    0.000000   0.000000   0.000000   0.000000   0.000000   0.000000
    11  C    0.000000   0.000000   0.000000   0.000000   0.000000   0.000000
    12  N    0.000000   0.000000   0.000000   0.000000   0.000000   0.000000
    13  N    0.002810  -0.067834   0.002627   0.001670  -0.049948   0.002277
    14  C   -0.037010   0.268564  -0.036384  -0.045848  -0.089403   0.004259
    15  H    0.002584  -0.048700  -0.000897   0.004405  -0.002047  -0.000129
    16  C   -0.000097  -0.090653   0.003949   0.000506   0.273452  -0.039008
    17  H    0.000003   0.004970  -0.000034   0.000024  -0.037528   0.001251
    18  C   -0.000001   0.000522  -0.000109   0.000758  -0.075667  -0.001881
    19  H    0.000002   0.001727  -0.000013   0.001840  -0.003387   0.000541
    20  H    0.000000  -0.000169   0.000002  -0.000042   0.003887   0.000083
    21  H    0.000000   0.000246   0.000003   0.000066  -0.000528   0.001414
    22  C    0.345550  -0.056431  -0.000007  -0.004933   0.005077  -0.000067
    23  H   -0.027983   0.003866  -0.000081   0.000031  -0.000142   0.000001
    24  H   -0.022569  -0.004793   0.000040   0.005448  -0.000062  -0.000003
    25  H    0.551910  -0.003067   0.001597   0.000204  -0.000044  -0.000001
    26  C   -0.003067   5.428496   0.373225   0.369372   0.265188  -0.032637
    27  H    0.001597   0.373225   0.526627  -0.026284  -0.033486   0.000290
    28  H    0.000204   0.369372  -0.026284   0.531745  -0.043711  -0.004044
    29  C   -0.000044   0.265188  -0.033486  -0.043711   5.429265   0.380184
    30  H   -0.000001  -0.032637   0.000290  -0.004044   0.380184   0.516786
    31  H   -0.000002  -0.043963  -0.004121   0.003744   0.368544  -0.027934
             31
     1  C    0.000000
     2  C    0.000000
     3  C    0.000002
     4  C   -0.000202
     5  C    0.000031
     6  C    0.000000
     7  H    0.000000
     8  H    0.000000
     9  H    0.000173
    10  H    0.000000
    11  C    0.000000
    12  N    0.000000
    13  N    0.001334
    14  C    0.000981
    15  H    0.002032
    16  C   -0.038884
    17  H   -0.004640
    18  C    0.003593
    19  H    0.000031
    20  H   -0.000089
    21  H    0.000002
    22  C   -0.000054
    23  H    0.000003
    24  H    0.000002
    25  H   -0.000002
    26  C   -0.043963
    27  H   -0.004121
    28  H    0.003744
    29  C    0.368544
    30  H   -0.027934
    31  H    0.543160
 Mulliken atomic charges:
              1
     1  C    0.003373
     2  C   -0.166652
     3  C   -0.154980
     4  C    0.250022
     5  C   -0.162203
     6  C   -0.164872
     7  H    0.206346
     8  H    0.205142
     9  H    0.196693
    10  H    0.206075
    11  C    0.289207
    12  N   -0.473257
    13  N   -0.634187
    14  C   -0.034026
    15  H    0.177810
    16  C   -0.043504
    17  H    0.189604
    18  C   -0.521999
    19  H    0.193232
    20  H    0.196213
    21  H    0.177152
    22  C   -0.541978
    23  H    0.200028
    24  H    0.194881
    25  H    0.185955
    26  C   -0.373031
    27  H    0.193134
    28  H    0.205182
    29  C   -0.394297
    30  H    0.198680
    31  H    0.196257
 Sum of Mulliken atomic charges =   0.00000
 Mulliken charges with hydrogens summed into heavy atoms:
              1
     1  C    0.003373
     2  C    0.039694
     3  C    0.050162
     4  C    0.250022
     5  C    0.034490
     6  C    0.041203
    11  C    0.289207
    12  N   -0.473257
    13  N   -0.634187
    14  C    0.143784
    16  C    0.146100
    18  C    0.044598
    22  C    0.038886
    26  C    0.025285
    29  C    0.000639
 Sum of Mulliken charges with hydrogens summed into heavy atoms =   0.00000
 Electronic spatial extent (au):  <R**2>=           3848.3622
 Charge=              0.0000 electrons
 Dipole moment (field-independent basis, Debye):
    X=              4.9806    Y=              0.0279    Z=             -0.5092  Tot=              5.0066
 Quadrupole moment (field-independent basis, Debye-Ang):
   XX=           -116.0179   YY=            -89.8548   ZZ=            -84.4688
   XY=             -0.5667   XZ=             -2.4926   YZ=              2.6564
 Traceless Quadrupole moment (field-independent basis, Debye-Ang):
   XX=            -19.2375   YY=              6.9257   ZZ=             12.3117
   XY=             -0.5667   XZ=             -2.4926   YZ=              2.6564
 Octapole moment (field-independent basis, Debye-Ang**2):
  XXX=            223.6966  YYY=              0.6835  ZZZ=             -0.6750  XYY=              8.5965
  XXY=              3.6783  XXZ=              4.9927  XZZ=             -6.8087  YZZ=              0.2089
  YYZ=             -1.0606  XYZ=             -5.6767
 Hexadecapole moment (field-independent basis, Debye-Ang**3):
 XXXX=          -5313.3056 YYYY=           -761.7720 ZZZZ=           -447.4521 XXXY=            -22.7281
 XXXZ=            -46.7280 YYYX=             -0.1921 YYYZ=             -2.2502 ZZZX=             -1.6337
 ZZZY=             18.9052 XXYY=           -789.4722 XXZZ=           -715.8334 YYZZ=           -206.3887
 XXYZ=             10.2248 YYXZ=             -3.3224 ZZXY=              4.2786
 N-N= 9.499462906900D+02 E-N=-3.315927958916D+03  KE= 6.066740346109D+02
 1|1|UNPC-DESKTOP-K2VF0AK|SP|RTD-B3LYP-FC|3-21G|C13H16N2|MELIH|17-Dec-2
 024|0||# td b3lyp/3-21g geom=connectivity||Title Card Required||0,1|C,
 0,2.945496,0.024749,-0.063034|C,0,2.293807,0.420107,1.096967|C,0,0.913
 675,0.413832,1.147537|C,0,0.163283,0.017767,0.050758|C,0,0.825512,-0.3
 76405,-1.106967|C,0,2.20314,-0.375349,-1.167977|H,0,2.86648,0.727479,1
 .948326|H,0,0.397573,0.712497,2.03548|H,0,0.257657,-0.683997,-1.961873
 |H,0,2.707634,-0.680136,-2.062424|C,0,4.372642,0.02815,-0.12219|N,0,5.
 512241,0.030731,-0.169721|N,0,-1.257881,0.029656,0.135581|C,0,-1.96246
 643,-1.25285068,0.36976655|H,0,-1.65992615,-2.00631944,-0.35607283|C,0
 ,-2.00352016,0.8987985,-0.82087939|H,0,-1.43685146,1.02421872,-1.73672
 858|C,0,-2.25847528,2.26666102,-0.18378459|H,0,-2.84660793,2.1454221,0
 .71760326|H,0,-1.32043242,2.74029025,0.08180275|H,0,-2.7894376,2.91793
 412,-0.87015928|C,0,-1.71107548,-1.76980425,1.7856893|H,0,-0.66323266,
 -2.00218214,1.93451528|H,0,-2.00082437,-1.00908882,2.49982763|H,0,-2.2
 8817819,-2.66988118,1.96870228|C,0,-3.42167326,-0.84998779,0.10902793|
 H,0,-4.05368347,-1.70503497,-0.0914395|H,0,-3.80274485,-0.32258761,0.9
 7501911|C,0,-3.30962957,0.10835343,-1.09323862|H,0,-4.16490662,0.76335
 395,-1.19007326|H,0,-3.21157023,-0.46778797,-2.00628654||Version=IA32W
 -G09RevA.02|State=1-A|HF=-611.1478798|RMSD=3.810e-009|PG=C01 [X(C13H16
 N2)]||@


 I FIND THAT THE THREE TRULY GREAT TIMES FOR THINKING THOUGHTS
 ARE WHEN I AM STANDING IN THE SHOWER, SITTING ON THE JOHN, OR WALKING.

                                    -- COLIN FLETCHER
 Job cpu time:  0 days  0 hours  5 minutes 55.0 seconds.
 File lengths (MBytes):  RWF=     64 Int=      0 D2E=      0 Chk=      5 Scr=      1
 Normal termination of Gaussian 09 at Tue Dec 17 23:29:43 2024.
