 Entering Link 1 = C:\G09W\l1.exe PID=     21932.
  
 Copyright (c) 1988,1990,1992,1993,1995,1998,2003,2009, Gaussian, Inc.
                  All Rights Reserved.
  
 This is part of the Gaussian(R) 09 program.  It is based on
 the Gaussian(R) 03 system (copyright 2003, Gaussian, Inc.),
 the Gaussian(R) 98 system (copyright 1998, Gaussian, Inc.),
 the Gaussian(R) 94 system (copyright 1995, Gaussian, Inc.),
 the Gaussian 92(TM) system (copyright 1992, Gaussian, Inc.),
 the Gaussian 90(TM) system (copyright 1990, Gaussian, Inc.),
 the Gaussian 88(TM) system (copyright 1988, Gaussian, Inc.),
 the Gaussian 86(TM) system (copyright 1986, Carnegie Mellon
 University), and the Gaussian 82(TM) system (copyright 1983,
 Carnegie Mellon University). Gaussian is a federally registered
 trademark of Gaussian, Inc.
  
 This software contains proprietary and confidential information,
 including trade secrets, belonging to Gaussian, Inc.
  
 This software is provided under written license and may be
 used, copied, transmitted, or stored only in accord with that
 written license.
  
 The following legend is applicable only to US Government
 contracts under FAR:
  
                    RESTRICTED RIGHTS LEGEND
  
 Use, reproduction and disclosure by the US Government is
 subject to restrictions as set forth in subparagraphs (a)
 and (c) of the Commercial Computer Software - Restricted
 Rights clause in FAR 52.227-19.
  
 Gaussian, Inc.
 340 Quinnipiac St., Bldg. 40, Wallingford CT 06492
  
  
 ---------------------------------------------------------------
 Warning -- This program may not be used in any manner that
 competes with the business of Gaussian, Inc. or will provide
 assistance to any competitor of Gaussian, Inc.  The licensee
 of this program is prohibited from giving any competitor of
 Gaussian, Inc. access to this program.  By using this program,
 the user acknowledges that Gaussian, Inc. is engaged in the
 business of creating and licensing software in the field of
 computational chemistry and represents and warrants to the
 licensee that it is not a competitor of Gaussian, Inc. and that
 it will not use this program in any manner prohibited above.
 ---------------------------------------------------------------
  

 Cite this work as:
 Gaussian 09, Revision A.02,
 M. J. Frisch, G. W. Trucks, H. B. Schlegel, G. E. Scuseria, 
 M. A. Robb, J. R. Cheeseman, G. Scalmani, V. Barone, B. Mennucci, 
 G. A. Petersson, H. Nakatsuji, M. Caricato, X. Li, H. P. Hratchian, 
 A. F. Izmaylov, J. Bloino, G. Zheng, J. L. Sonnenberg, M. Hada, 
 M. Ehara, K. Toyota, R. Fukuda, J. Hasegawa, M. Ishida, T. Nakajima, 
 Y. Honda, O. Kitao, H. Nakai, T. Vreven, J. A. Montgomery, Jr., 
 J. E. Peralta, F. Ogliaro, M. Bearpark, J. J. Heyd, E. Brothers, 
 K. N. Kudin, V. N. Staroverov, R. Kobayashi, J. Normand, 
 K. Raghavachari, A. Rendell, J. C. Burant, S. S. Iyengar, J. Tomasi, 
 M. Cossi, N. Rega, J. M. Millam, M. Klene, J. E. Knox, J. B. Cross, 
 V. Bakken, C. Adamo, J. Jaramillo, R. Gomperts, R. E. Stratmann, 
 O. Yazyev, A. J. Austin, R. Cammi, C. Pomelli, J. W. Ochterski, 
 R. L. Martin, K. Morokuma, V. G. Zakrzewski, G. A. Voth, 
 P. Salvador, J. J. Dannenberg, S. Dapprich, A. D. Daniels, 
 O. Farkas, J. B. Foresman, J. V. Ortiz, J. Cioslowski, 
 and D. J. Fox, Gaussian, Inc., Wallingford CT, 2009.
 
 ******************************************
 Gaussian 09:  IA32W-G09RevA.02 11-Jun-2009
                25-Dec-2024 
 ******************************************
 %chk=C:\G09W\Hw5\ENERGY220.chk
 ----------------------------------
 # td b3lyp/3-21g geom=connectivity
 ----------------------------------
 1/38=1,57=2/1;
 2/12=2,17=6,18=5,40=1/2;
 3/5=5,11=2,16=1,25=1,30=1,74=-5/1,2,8,3;
 4//1;
 5/5=2,38=5/2;
 8/6=1,10=1/1;
 9/42=1/14;
 6/7=2,8=2,9=2,10=2/1;
 99/5=1,9=1/99;
 -------------------
 Title Card Required
 -------------------
 Symbolic Z-matrix:
 Charge =  0 Multiplicity = 1
 C                    -2.94362  -0.05527  -0.04738 
 C                    -2.19103  -1.10186  -0.56205 
 C                    -0.81257  -1.06001  -0.48819 
 C                    -0.16365   0.01818   0.0943 
 C                    -0.92651   1.06197   0.60691 
 C                    -2.30348   1.02987   0.53978 
 H                    -2.68499  -1.93814  -1.01359 
 H                    -0.21948  -1.86054  -0.87729 
 H                    -0.43763   1.9014    1.0589 
 H                    -2.88576   1.83674   0.93646 
 C                    -4.36968  -0.0922   -0.11976 
 N                    -5.50844  -0.12141  -0.17739 
 N                     1.25903   0.03149   0.14772 
 C                     1.99708   0.81354  -0.87198 
 H                     1.68567   0.53999  -1.87909 
 C                     1.95417  -1.24986   0.46572 
 H                     1.35452  -2.09397   0.14395 
 C                     2.20253  -1.34169   1.97298 
 H                     2.82304  -0.51314   2.29167 
 H                     1.26451  -1.29348   2.51389 
 H                     2.69669  -2.27402   2.22549 
 C                     1.80412   2.31484  -0.66189 
 H                     0.76684   2.59655  -0.79904 
 H                     2.10221   2.57517   0.34608 
 H                     2.40528   2.8769   -1.36857 
 C                     3.43817   0.33681  -0.63626 
 H                     4.08035   0.53745  -1.48365 
 H                     3.83738   0.83717   0.23757 
 C                     3.26619  -1.16949  -0.35711 
 H                     4.1042   -1.59659   0.17695 
 H                     3.14918  -1.69953  -1.2955 
 
                          Input orientation:                          
 ---------------------------------------------------------------------
 Center     Atomic      Atomic             Coordinates (Angstroms)
 Number     Number       Type             X           Y           Z
 ---------------------------------------------------------------------
      1          6           0       -2.943617   -0.055272   -0.047376
      2          6           0       -2.191033   -1.101858   -0.562047
      3          6           0       -0.812573   -1.060010   -0.488186
      4          6           0       -0.163645    0.018177    0.094297
      5          6           0       -0.926507    1.061972    0.606913
      6          6           0       -2.303478    1.029874    0.539778
      7          1           0       -2.684985   -1.938136   -1.013594
      8          1           0       -0.219479   -1.860537   -0.877292
      9          1           0       -0.437630    1.901400    1.058902
     10          1           0       -2.885760    1.836744    0.936458
     11          6           0       -4.369679   -0.092196   -0.119761
     12          7           0       -5.508440   -0.121409   -0.177389
     13          7           0        1.259033    0.031491    0.147720
     14          6           0        1.997084    0.813542   -0.871978
     15          1           0        1.685670    0.539993   -1.879093
     16          6           0        1.954165   -1.249863    0.465721
     17          1           0        1.354525   -2.093972    0.143953
     18          6           0        2.202527   -1.341690    1.972978
     19          1           0        2.823041   -0.513141    2.291669
     20          1           0        1.264513   -1.293476    2.513892
     21          1           0        2.696687   -2.274017    2.225485
     22          6           0        1.804121    2.314844   -0.661895
     23          1           0        0.766839    2.596552   -0.799037
     24          1           0        2.102211    2.575174    0.346076
     25          1           0        2.405277    2.876898   -1.368571
     26          6           0        3.438169    0.336805   -0.636258
     27          1           0        4.080351    0.537454   -1.483648
     28          1           0        3.837380    0.837167    0.237571
     29          6           0        3.266186   -1.169486   -0.357109
     30          1           0        4.104197   -1.596593    0.176951
     31          1           0        3.149176   -1.699529   -1.295496
 ---------------------------------------------------------------------
                    Distance matrix (angstroms):
                    1          2          3          4          5
     1  C    0.000000
     2  C    1.388024   0.000000
     3  C    2.396906   1.381072   0.000000
     4  C    2.784548   2.407399   1.386680   0.000000
     5  C    2.396886   2.765439   2.390613   1.390770   0.000000
     6  C    1.389989   2.402279   2.765343   2.408499   1.378980
     7  H    2.132052   1.071095   2.133796   3.378126   3.836527
     8  H    3.371746   2.135884   1.069583   2.115814   3.353179
     9  H    3.366361   3.836855   3.362144   2.133556   1.071417
    10  H    2.133308   3.370986   3.836522   3.380286   2.132497
    11  C    1.428375   2.441625   3.704781   4.212924   3.703457
    12  N    2.568968   3.480579   4.798826   5.353516   4.796835
    13  N    4.208070   3.700163   2.426376   1.423743   2.459539
    14  C    5.083831   4.615749   3.398775   2.497007   3.285761
    15  H    5.013963   4.411248   3.276561   2.754365   3.643646
    16  C    5.067404   4.273275   2.932716   2.496198   3.696321
    17  H    4.760980   3.748827   2.482940   2.601630   3.921405
    18  C    5.676222   5.078114   3.902243   3.313224   4.175473
    19  H    6.239802   5.799244   4.609160   3.745803   4.402101
    20  H    5.079527   4.630218   3.658041   3.100727   3.739688
    21  H    6.473157   5.747530   4.599210   4.240002   5.184220
    22  C    5.341919   5.257859   4.273980   3.117468   3.261271
    23  H    4.622191   4.741667   3.995199   2.883030   2.683105
    24  H    5.703896   5.725137   4.733553   3.425745   3.395725
    25  H    6.241301   6.132458   5.160318   4.112375   4.277532
    26  C    6.420880   5.810609   4.476810   3.688943   4.595839
    27  H    7.193770   6.547286   5.242475   4.557528   5.451073
    28  H    6.845404   6.382865   5.074255   4.086499   4.783468
    29  C    6.316570   5.461485   4.082333   3.657602   4.846382
    30  H    7.217872   6.357736   4.990487   4.563857   5.706209
    31  H    6.433002   5.423374   4.093432   3.982062   5.277901
                    6          7          8          9         10
     6  C    0.000000
     7  H    3.371586   0.000000
     8  H    3.834790   2.470490   0.000000
     9  H    2.123779   4.907941   4.236580   0.000000
    10  H    1.071189   4.253555   4.905979   2.452043   0.000000
    11  C    2.441970   2.654171   4.574390   4.563407   2.653003
    12  N    3.480167   3.460005   5.611376   5.597614   3.457379
    13  N    3.720479   4.558877   2.610827   2.684302   4.589156
    14  C    4.531522   5.432639   3.473310   3.292350   5.306558
    15  H    4.690866   5.098317   3.224243   3.872163   5.523302
    16  C    4.830136   4.917703   2.627039   4.000376   5.759654
    17  H    4.826601   4.204978   1.890746   4.473472   5.835975
    18  C    5.289845   5.758744   3.776156   4.280607   6.088307
    19  H    5.633047   6.579797   4.595076   4.240483   6.320520
    20  H    4.693148   5.334536   3.744852   3.901476   5.432434
    21  H    6.225669   6.290218   4.278109   5.349670   7.051501
    22  C    4.468505   6.193836   4.644907   2.856138   4.977780
    23  H    3.697804   5.703027   4.565587   2.320758   4.114697
    24  H    4.672854   6.718327   5.153873   2.722661   5.076779
    25  H    5.406077   7.015791   5.438197   3.863462   5.864311
    26  C    5.901687   6.542993   4.273734   4.510359   6.686952
    27  H    6.714909   7.219368   4.960501   5.360696   7.488109
    28  H    6.151309   7.197844   4.997863   4.481393   6.832877
    29  C    6.054977   6.036409   3.591379   5.015345   6.968298
    30  H    6.934571   6.901235   4.458169   5.800171   7.824587
    31  H    6.367834   5.845839   3.398331   5.601344   7.342159
                   11         12         13         14         15
    11  C    0.000000
    12  N    1.140592   0.000000
    13  N    5.636421   6.777003   0.000000
    14  C    6.474710   7.595359   1.481927   0.000000
    15  H    6.337363   7.422161   2.132736   1.089077   0.000000
    16  C    6.455539   7.574792   1.492046   2.459456   2.962064
    17  H    6.069857   7.148045   2.127611   3.146210   3.337685
    18  C    7.009614   8.097665   2.471310   3.575054   4.318138
    19  H    7.597856   8.698464   2.709108   3.528591   4.449489
    20  H    6.334297   7.381709   2.711888   4.054664   4.778838
    21  H    7.758483   8.816555   3.420428   4.429079   5.078224
    22  C    6.648576   7.722929   2.483203   1.528162   2.155388
    23  H    5.837345   6.866796   2.778154   2.167475   2.498040
    24  H    7.015499   8.091204   2.687120   2.144307   3.044149
    25  H    7.501671   8.546091   3.421893   2.161172   2.497918
    26  C    7.836664   8.970080   2.335909   1.536088   2.158049
    27  H    8.582520   9.699759   3.298060   2.188690   2.427113
    28  H    8.267237   9.404010   2.702787   2.149033   3.032892
    29  C    7.715136   8.838825   2.392877   2.410002   2.781507
    30  H    8.611494   9.731625   3.278181   3.368817   3.826433
    31  H    7.778114   8.871017   2.941418   2.796821   2.738228
                   16         17         18         19         20
    16  C    0.000000
    17  H    1.084261   0.000000
    18  C    1.530340   2.151829   0.000000
    19  H    2.152160   3.044381   1.083096   0.000000
    20  H    2.161603   2.503100   1.083874   1.757076   0.000000
    21  H    2.167256   2.483262   1.084983   1.766644   1.759478
    22  C    3.741814   4.504352   4.524547   4.214171   4.837021
    23  H    4.219510   4.820334   5.025437   4.842584   5.133760
    24  H    3.829770   4.732949   4.242487   3.720566   4.513049
    25  H    4.538534   5.301071   5.385493   5.006420   5.810927
    26  C    2.436009   3.295297   3.339501   3.110232   4.160053
    27  H    3.393407   4.123545   4.359549   4.115531   5.221262
    28  H    2.820327   3.842514   3.229830   2.659235   4.042390
    29  C    1.550777   2.181785   2.567164   2.764632   3.502102
    30  H    2.196872   2.794490   2.628124   2.699493   3.690119
    31  H    2.175347   2.334175   3.421566   3.792312   4.269458
                   21         22         23         24         25
    21  H    0.000000
    22  C    5.494659   0.000000
    23  H    6.049338   1.083569   0.000000
    24  H    5.234523   1.082883   1.759250   0.000000
    25  H    6.287613   1.084750   1.757112   1.767173   0.000000
    26  C    3.944079   2.565815   3.502707   2.785688   2.838172
    27  H    4.855570   3.002602   3.960800   3.378347   2.879603
    28  H    3.864253   2.669589   3.687575   2.458302   2.964981
    29  C    2.866027   3.790921   4.541484   3.983940   4.258808
    30  H    2.576136   4.614472   5.447291   4.630355   5.028627
    31  H    3.596121   4.280866   4.937439   4.697230   4.637069
                   26         27         28         29         30
    26  C    0.000000
    27  H    1.082002   0.000000
    28  H    1.083194   1.763933   0.000000
    29  C    1.541563   2.201272   2.169462   0.000000
    30  H    2.200666   2.704129   2.449093   1.081621   0.000000
    31  H    2.159807   2.430346   3.042819   1.084069   1.758056
                   31
    31  H    0.000000
 Stoichiometry    C13H16N2
 Framework group  C1[X(C13H16N2)]
 Deg. of freedom    87
 Full point group                 C1      NOp   1
 Largest Abelian subgroup         C1      NOp   1
 Largest concise Abelian subgroup C1      NOp   1
                         Standard orientation:                         
 ---------------------------------------------------------------------
 Center     Atomic      Atomic             Coordinates (Angstroms)
 Number     Number       Type             X           Y           Z
 ---------------------------------------------------------------------
      1          6           0       -2.943293   -0.058490   -0.048277
      2          6           0       -2.179331   -0.897453   -0.847724
      3          6           0       -0.801097   -0.855898   -0.769595
      4          6           0       -0.163673    0.016960    0.099134
      5          6           0       -0.937887    0.853678    0.895838
      6          6           0       -2.314723    0.819520    0.826975
      7          1           0       -2.664360   -1.574386   -1.521336
      8          1           0       -0.199266   -1.498651   -1.376781
      9          1           0       -0.457976    1.533411    1.570807
     10          1           0       -2.905777    1.466318    1.443216
     11          6           0       -4.369183   -0.096558   -0.123399
     12          7           0       -5.507810   -0.126747   -0.183141
     13          7           0        1.259033    0.037899    0.149257
     14          6           0        1.976986    1.094900   -0.601344
     15          1           0        1.661531    1.120907   -1.643409
     16          6           0        1.975831   -1.268767    0.078362
     17          1           0        1.386300   -1.992698   -0.473001
     18          6           0        2.237776   -1.790810    1.492857
     19          1           0        2.848385   -1.080521    2.036679
     20          1           0        1.303570   -1.917647    2.027605
     21          1           0        2.747873   -2.747892    1.461525
     22          6           0        1.763282    2.466777    0.037062
     23          1           0        0.720818    2.758842   -0.008650
     24          1           0        2.065619    2.427651    1.076146
     25          1           0        2.350195    3.220003   -0.477590
     26          6           0        3.426913    0.594332   -0.519435
     27          1           0        4.059115    1.043434   -1.273993
     28          1           0        3.825674    0.825528    0.460793
     29          6           0        3.279774   -0.930686   -0.689976
     30          1           0        4.128396   -1.480603   -0.306133
     31          1           0        3.163093   -1.166792   -1.741568
 ---------------------------------------------------------------------
 Rotational constants (GHZ):      1.4219099      0.3180895      0.2908937
 Standard basis: 3-21G (6D, 7F)
 There are   167 symmetry adapted basis functions of A   symmetry.
 Integral buffers will be    262144 words long.
 Raffenetti 2 integral format.
 Two-electron integral symmetry is turned on.
   167 basis functions,   273 primitive gaussians,   167 cartesian basis functions
    54 alpha electrons       54 beta electrons
       nuclear repulsion energy       950.9974047839 Hartrees.
 NAtoms=   31 NActive=   31 NUniq=   31 SFac= 7.50D-01 NAtFMM=   80 NAOKFM=F Big=F
 One-electron integrals computed using PRISM.
 NBasis=   167 RedAO= T  NBF=   167
 NBsUse=   167 1.00D-06 NBFU=   167
 Harris functional with IExCor=  402 diagonalized for initial guess.
 ExpMin= 1.83D-01 ExpMax= 2.43D+02 ExpMxC= 2.43D+02 IAcc=1 IRadAn=         1 AccDes= 0.00D+00
 HarFok:  IExCor=  402 AccDes= 0.00D+00 IRadAn=         1 IDoV= 1
 ScaDFX=  1.000000  1.000000  1.000000  1.000000
 FoFCou: FMM=F IPFlag=           0 FMFlag=      100000 FMFlg1=           0
         NFxFlg=           0 DoJE=T BraDBF=F KetDBF=T FulRan=T
         Omega=  0.000000  0.000000  1.000000  0.000000  0.000000 ICntrl=     500 IOpCl=  0
         NMat0=    1 NMatS0=    1 NMatT0=    0 NMatD0=    1 NMtDS0=    0 NMtDT0=    0
         I1Cent=           4 NGrid=           0.
 Petite list used in FoFCou.
 Initial guess orbital symmetries:
       Occupied  (A) (A) (A) (A) (A) (A) (A) (A) (A) (A) (A) (A)
                 (A) (A) (A) (A) (A) (A) (A) (A) (A) (A) (A) (A)
                 (A) (A) (A) (A) (A) (A) (A) (A) (A) (A) (A) (A)
                 (A) (A) (A) (A) (A) (A) (A) (A) (A) (A) (A) (A)
                 (A) (A) (A) (A) (A) (A)
       Virtual   (A) (A) (A) (A) (A) (A) (A) (A) (A) (A) (A) (A)
                 (A) (A) (A) (A) (A) (A) (A) (A) (A) (A) (A) (A)
                 (A) (A) (A) (A) (A) (A) (A) (A) (A) (A) (A) (A)
                 (A) (A) (A) (A) (A) (A) (A) (A) (A) (A) (A) (A)
                 (A) (A) (A) (A) (A) (A) (A) (A) (A) (A) (A) (A)
                 (A) (A) (A) (A) (A) (A) (A) (A) (A) (A) (A) (A)
                 (A) (A) (A) (A) (A) (A) (A) (A) (A) (A) (A) (A)
                 (A) (A) (A) (A) (A) (A) (A) (A) (A) (A) (A) (A)
                 (A) (A) (A) (A) (A) (A) (A) (A) (A) (A) (A) (A)
                 (A) (A) (A) (A) (A)
 The electronic state of the initial guess is 1-A.
 Requested convergence on RMS density matrix=1.00D-08 within 128 cycles.
 Requested convergence on MAX density matrix=1.00D-06.
 Requested convergence on             energy=1.00D-06.
 No special actions if energy rises.
 Integral accuracy reduced to 1.0D-05 until final iterations.
 Initial convergence to 1.0D-05 achieved.  Increase integral accuracy.
 SCF Done:  E(RB3LYP) =  -611.146688975     A.U. after   16 cycles
             Convg  =    0.3423D-08             -V/T =  2.0074
 ExpMin= 1.83D-01 ExpMax= 2.43D+02 ExpMxC= 2.43D+02 IAcc=1 IRadAn=         1 AccDes= 0.00D+00
 HarFok:  IExCor=  205 AccDes= 0.00D+00 IRadAn=         1 IDoV=-2
 ScaDFX=  1.000000  1.000000  1.000000  1.000000
 Range of M.O.s used for correlation:    16   167
 NBasis=   167 NAE=    54 NBE=    54 NFC=    15 NFV=     0
 NROrb=    152 NOA=    39 NOB=    39 NVA=   113 NVB=   113
 Would need an additional   268100000 words for in-memory AO integral storage.
 Orbital symmetries:
       Occupied  (A) (A) (A) (A) (A) (A) (A) (A) (A) (A) (A) (A)
                 (A) (A) (A) (A) (A) (A) (A) (A) (A) (A) (A) (A)
                 (A) (A) (A) (A) (A) (A) (A) (A) (A) (A) (A) (A)
                 (A) (A) (A) (A) (A) (A) (A) (A) (A) (A) (A) (A)
                 (A) (A) (A) (A) (A) (A)
       Virtual   (A) (A) (A) (A) (A) (A) (A) (A) (A) (A) (A) (A)
                 (A) (A) (A) (A) (A) (A) (A) (A) (A) (A) (A) (A)
                 (A) (A) (A) (A) (A) (A) (A) (A) (A) (A) (A) (A)
                 (A) (A) (A) (A) (A) (A) (A) (A) (A) (A) (A) (A)
                 (A) (A) (A) (A) (A) (A) (A) (A) (A) (A) (A) (A)
                 (A) (A) (A) (A) (A) (A) (A) (A) (A) (A) (A) (A)
                 (A) (A) (A) (A) (A) (A) (A) (A) (A) (A) (A) (A)
                 (A) (A) (A) (A) (A) (A) (A) (A) (A) (A) (A) (A)
                 (A) (A) (A) (A) (A) (A) (A) (A) (A) (A) (A) (A)
                 (A) (A) (A) (A) (A)
    12 initial guesses have been made.
 Convergence on wavefunction:    0.001000000000000
 Iteration     1 Dimension    12 NMult    12
 CISAX will form    12 AO SS matrices at one time.
 No map to state      3
 Iteration     2 Dimension    18 NMult    18
 Iteration     3 Dimension    24 NMult    24
 Iteration     4 Dimension    30 NMult    30
 Iteration     5 Dimension    34 NMult    34
 Iteration     6 Dimension    38 NMult    38
 ***********************************************************************
 Excited states from <AA,BB:AA,BB> singles matrix:
 ***********************************************************************
 
 Ground to excited state transition electric dipole moments (Au):
       state          X           Y           Z        Dip. S.      Osc.
         1        -1.2166     -0.0364     -0.0385      1.4830      0.1443
         2        -0.1092      0.1271      0.1629      0.0546      0.0059
         3        -0.0555      0.1658      0.1689      0.0591      0.0081
 Ground to excited state transition velocity dipole moments (Au):
       state          X           Y           Z        Dip. S.      Osc.
         1         0.1457      0.0057     -0.0001      0.0213      0.0971
         2         0.0155     -0.0162     -0.0268      0.0012      0.0051
         3         0.0101     -0.0268     -0.0290      0.0017      0.0054
 Ground to excited state transition magnetic dipole moments (Au):
       state          X           Y           Z
         1         0.2519      0.0648     -0.1226
         2        -0.0499     -0.2628      0.5051
         3        -0.0370     -0.0793      0.1862
 <0|del|b> * <b|rxdel|0> + <0|del|b> * <b|delr+rdel|0>
 Rotatory Strengths (R) in cgs (10**-40 erg-esu-cm/Gauss)
       state          XX          YY          ZZ    R(velocity)
         1         1.4350     63.3618    114.8777     59.8915
 Total R(velocity) tensor for State=          1
                 1             2             3 
      1   0.143497D+01 -0.354326D+02  0.408459D+02
      2  -0.254910D+01  0.633618D+02 -0.553893D+02
      3  -0.446897D+00  0.141471D+02  0.114878D+03
 R(velocity) tensor in inp. orien. for State=          1
                 1             2             3 
      1   0.684150D+00 -0.214488D+02  0.478344D+02
      2  -0.143174D+01  0.565982D+02 -0.383062D+02
      3  -0.192858D+00  0.317967D+02  0.122392D+03
         2       -20.8561    -30.1017      6.8274    -14.7101
 Total R(velocity) tensor for State=          2
                 1             2             3 
      1  -0.208561D+02  0.680261D+01 -0.161623D+02
      2  -0.134132D+01 -0.301017D+02  0.174497D+02
      3  -0.185142D+01 -0.130431D+02  0.682744D+01
 R(velocity) tensor in inp. orien. for State=          2
                 1             2             3 
      1  -0.207060D+02  0.175797D+01 -0.172191D+02
      2  -0.211949D+01 -0.257477D+02  0.275981D+02
      3  -0.161621D+01 -0.310126D+01  0.232323D+01
         3        -5.8147     -4.5130     -2.2107     -4.1795
 Total R(velocity) tensor for State=          3
                 1             2             3 
      1  -0.581467D+01 -0.174568D+00 -0.187220D+01
      2  -0.202128D+01 -0.451299D+01  0.347244D+01
      3  -0.132204D+01  0.188782D+01 -0.221073D+01
 R(velocity) tensor in inp. orien. for State=          3
                 1             2             3 
      1  -0.584030D+01 -0.683227D+00 -0.170122D+01
      2  -0.230293D+01 -0.278133D+01  0.366661D+01
      3  -0.661407D+00  0.207935D+01 -0.391677D+01
 1/2[<0|r|b>*<b|rxdel|0> + (<0|rxdel|b>*<b|r|0>)*]
 Rotatory Strengths (R) in cgs (10**-40 erg-esu-cm/Gauss)
       state          XX          YY          ZZ     R(length)     R(au)
         1       216.7139      1.6700     -3.3383     71.6819      0.1520
         2        -3.8553     23.6164    -58.2051    -12.8147     -0.0272
         3        -1.4532      9.3014    -22.2403     -4.7974     -0.0102
  1/2[<0|del|b>*<b|r|0> + (<0|r|b>*<b|del|0>)*] (Au)
       state          X           Y           Z        Dip. S.   Osc.(frdel)
         1        -0.1772     -0.0002      0.0000      0.1774      0.1183
         2        -0.0017     -0.0021     -0.0044      0.0081      0.0054
         3        -0.0006     -0.0044     -0.0049      0.0099      0.0066
 Ground to excited state transition densities written to RWF  633

 Excitation energies and oscillator strengths:
 
 Excited State   1:      Singlet-A      3.9715 eV  312.18 nm  f=0.1443  <S**2>=0.000
      53 -> 55        -0.10085
      54 -> 55         0.69452
 This state for optimization and/or second-order correction.
 Copying the excited state density for this state as the 1-particle RhoCI density.
 
 Excited State   2:      Singlet-A      4.3793 eV  283.11 nm  f=0.0059  <S**2>=0.000
      52 -> 55        -0.11524
      54 -> 56         0.69552
 
 Excited State   3:      Singlet-A      5.5841 eV  222.03 nm  f=0.0081  <S**2>=0.000
      52 -> 55         0.54037
      53 -> 56        -0.44780
 SavETr:  write IOETrn=   770 NScale= 10 NData=  16 NLR=1 LETran=      62.

 **********************************************************************

            Population analysis using the SCF density.

 **********************************************************************

 Orbital symmetries:
       Occupied  (A) (A) (A) (A) (A) (A) (A) (A) (A) (A) (A) (A)
                 (A) (A) (A) (A) (A) (A) (A) (A) (A) (A) (A) (A)
                 (A) (A) (A) (A) (A) (A) (A) (A) (A) (A) (A) (A)
                 (A) (A) (A) (A) (A) (A) (A) (A) (A) (A) (A) (A)
                 (A) (A) (A) (A) (A) (A)
       Virtual   (A) (A) (A) (A) (A) (A) (A) (A) (A) (A) (A) (A)
                 (A) (A) (A) (A) (A) (A) (A) (A) (A) (A) (A) (A)
                 (A) (A) (A) (A) (A) (A) (A) (A) (A) (A) (A) (A)
                 (A) (A) (A) (A) (A) (A) (A) (A) (A) (A) (A) (A)
                 (A) (A) (A) (A) (A) (A) (A) (A) (A) (A) (A) (A)
                 (A) (A) (A) (A) (A) (A) (A) (A) (A) (A) (A) (A)
                 (A) (A) (A) (A) (A) (A) (A) (A) (A) (A) (A) (A)
                 (A) (A) (A) (A) (A) (A) (A) (A) (A) (A) (A) (A)
                 (A) (A) (A) (A) (A) (A) (A) (A) (A) (A) (A) (A)
                 (A) (A) (A) (A) (A)
 The electronic state is 1-A.
 Alpha  occ. eigenvalues --  -14.25267 -14.24301 -10.17597 -10.16849 -10.16095
 Alpha  occ. eigenvalues --  -10.15984 -10.15358 -10.14813 -10.14747 -10.13758
 Alpha  occ. eigenvalues --  -10.13700 -10.12508 -10.12365 -10.11100 -10.10630
 Alpha  occ. eigenvalues --   -0.95307  -0.93078  -0.88403  -0.81218  -0.78676
 Alpha  occ. eigenvalues --   -0.77249  -0.75569  -0.71701  -0.65387  -0.65006
 Alpha  occ. eigenvalues --   -0.63938  -0.58756  -0.57544  -0.57070  -0.53115
 Alpha  occ. eigenvalues --   -0.49787  -0.47935  -0.47170  -0.45512  -0.44891
 Alpha  occ. eigenvalues --   -0.44121  -0.43414  -0.41534  -0.40759  -0.40182
 Alpha  occ. eigenvalues --   -0.39041  -0.38232  -0.37531  -0.37249  -0.36345
 Alpha  occ. eigenvalues --   -0.34465  -0.33987  -0.33854  -0.33616  -0.33312
 Alpha  occ. eigenvalues --   -0.33132  -0.27352  -0.26810  -0.20526
 Alpha virt. eigenvalues --   -0.03464  -0.01249   0.05766   0.08938   0.10012
 Alpha virt. eigenvalues --    0.10696   0.11976   0.13228   0.14209   0.15523
 Alpha virt. eigenvalues --    0.15721   0.16673   0.17646   0.18116   0.18918
 Alpha virt. eigenvalues --    0.19376   0.19658   0.20427   0.21014   0.21556
 Alpha virt. eigenvalues --    0.22495   0.23093   0.23489   0.24252   0.25303
 Alpha virt. eigenvalues --    0.26479   0.28111   0.29863   0.31100   0.31968
 Alpha virt. eigenvalues --    0.33731   0.36438   0.38540   0.39767   0.50753
 Alpha virt. eigenvalues --    0.54350   0.59864   0.64321   0.66185   0.66302
 Alpha virt. eigenvalues --    0.67653   0.68948   0.70183   0.70687   0.70996
 Alpha virt. eigenvalues --    0.72810   0.73052   0.74156   0.75191   0.75237
 Alpha virt. eigenvalues --    0.76190   0.76716   0.77695   0.78478   0.79527
 Alpha virt. eigenvalues --    0.80324   0.81028   0.83093   0.85312   0.86450
 Alpha virt. eigenvalues --    0.88697   0.90524   0.93952   0.94005   0.95839
 Alpha virt. eigenvalues --    0.96141   0.97117   0.99324   1.00006   1.00702
 Alpha virt. eigenvalues --    1.01024   1.05225   1.05612   1.07558   1.07897
 Alpha virt. eigenvalues --    1.08834   1.09256   1.10493   1.12228   1.12904
 Alpha virt. eigenvalues --    1.14432   1.15086   1.16812   1.18174   1.18756
 Alpha virt. eigenvalues --    1.20607   1.21091   1.25119   1.28582   1.30832
 Alpha virt. eigenvalues --    1.34390   1.36024   1.40264   1.42970   1.50124
 Alpha virt. eigenvalues --    1.51572   1.52895   1.54494   1.56954   1.65613
 Alpha virt. eigenvalues --    1.70336   1.75819   1.78702   1.82925   1.92985
 Alpha virt. eigenvalues --    1.96527   1.98572   2.21460   2.35308   2.45249
 Alpha virt. eigenvalues --    2.50631   2.97630   3.00179
          Condensed to atoms (all electrons):
              1          2          3          4          5          6
     1  C    5.433038   0.449253  -0.084861  -0.030558  -0.085445   0.444374
     2  C    0.449253   5.165402   0.398568  -0.052833  -0.023592  -0.059358
     3  C   -0.084861   0.398568   5.325633   0.363508  -0.101236  -0.023572
     4  C   -0.030558  -0.052833   0.363508   4.996275   0.435538  -0.067410
     5  C   -0.085445  -0.023592  -0.101236   0.435538   5.218368   0.423660
     6  C    0.444374  -0.059358  -0.023572  -0.067410   0.423660   5.161748
     7  H   -0.042983   0.395585  -0.033078   0.003642  -0.000196   0.003780
     8  H    0.004374  -0.039407   0.393479  -0.052586   0.004018  -0.000133
     9  H    0.004726  -0.000414   0.005463  -0.044045   0.384690  -0.039676
    10  H   -0.043614   0.003822  -0.000250   0.004136  -0.033600   0.396674
    11  C    0.069984  -0.077322   0.004591  -0.000133   0.004202  -0.077329
    12  N   -0.117634  -0.000750  -0.000006   0.000000  -0.000006  -0.000763
    13  N   -0.000338   0.005328  -0.069613   0.312150  -0.062191   0.003984
    14  C    0.000014   0.000017  -0.000686  -0.067352  -0.001201  -0.000016
    15  H   -0.000008  -0.000164   0.003981  -0.002867  -0.000102   0.000043
    16  C   -0.000010   0.000717  -0.008551  -0.070410   0.002015  -0.000124
    17  H    0.000006  -0.000748   0.000287  -0.004334  -0.000254   0.000014
    18  C    0.000000   0.000004  -0.000018  -0.000063   0.000191   0.000005
    19  H    0.000000   0.000000  -0.000002   0.000054  -0.000012   0.000001
    20  H   -0.000002  -0.000016   0.000296   0.002791   0.000135   0.000000
    21  H    0.000000  -0.000001  -0.000014  -0.000014  -0.000009   0.000000
    22  C   -0.000002   0.000014  -0.000415  -0.004415  -0.002247  -0.000054
    23  H   -0.000011  -0.000009  -0.000053   0.002038   0.003120   0.000088
    24  H    0.000000  -0.000001   0.000034   0.000086  -0.000245   0.000026
    25  H    0.000000   0.000000   0.000012   0.000122   0.000035   0.000001
    26  C    0.000000   0.000001  -0.000117   0.005269  -0.000050   0.000001
    27  H    0.000000   0.000000   0.000005  -0.000080  -0.000001   0.000000
    28  H    0.000000   0.000000   0.000001  -0.000135   0.000002   0.000000
    29  C    0.000000  -0.000003  -0.000143   0.004797  -0.000073   0.000001
    30  H    0.000000   0.000000   0.000001  -0.000064   0.000001   0.000000
    31  H    0.000000  -0.000001   0.000068  -0.000185   0.000002   0.000000
              7          8          9         10         11         12
     1  C   -0.042983   0.004374   0.004726  -0.043614   0.069984  -0.117634
     2  C    0.395585  -0.039407  -0.000414   0.003822  -0.077322  -0.000750
     3  C   -0.033078   0.393479   0.005463  -0.000250   0.004591  -0.000006
     4  C    0.003642  -0.052586  -0.044045   0.004136  -0.000133   0.000000
     5  C   -0.000196   0.004018   0.384690  -0.033600   0.004202  -0.000006
     6  C    0.003780  -0.000133  -0.039676   0.396674  -0.077329  -0.000763
     7  H    0.478886  -0.003767   0.000003  -0.000052  -0.006217  -0.000102
     8  H   -0.003767   0.493654  -0.000042   0.000002  -0.000079   0.000000
     9  H    0.000003  -0.000042   0.490028  -0.004443  -0.000076   0.000000
    10  H   -0.000052   0.000002  -0.004443   0.478056  -0.006251  -0.000105
    11  C   -0.006217  -0.000079  -0.000076  -0.006251   4.955448   0.846772
    12  N   -0.000102   0.000000   0.000000  -0.000105   0.846772   6.748969
    13  N   -0.000022  -0.009522  -0.001856  -0.000017   0.000000   0.000000
    14  C    0.000000   0.000230  -0.000317   0.000001   0.000000   0.000000
    15  H    0.000001   0.000548   0.000142   0.000000   0.000000   0.000000
    16  C   -0.000001   0.000930  -0.000080   0.000001   0.000000   0.000000
    17  H    0.000014   0.009741   0.000016   0.000000   0.000000   0.000000
    18  C    0.000000  -0.000214  -0.000030   0.000000   0.000000   0.000000
    19  H    0.000000   0.000005   0.000019   0.000000   0.000000   0.000000
    20  H    0.000000  -0.000007   0.000017   0.000000   0.000000   0.000000
    21  H    0.000000   0.000017   0.000001   0.000000   0.000000   0.000000
    22  C    0.000000  -0.000020   0.000113  -0.000001   0.000000   0.000000
    23  H    0.000000  -0.000002   0.000356  -0.000002   0.000000   0.000000
    24  H    0.000000   0.000001   0.001661  -0.000001   0.000000   0.000000
    25  H    0.000000   0.000000   0.000084   0.000000   0.000000   0.000000
    26  C    0.000000  -0.000046  -0.000026   0.000000   0.000000   0.000000
    27  H    0.000000   0.000001   0.000001   0.000000   0.000000   0.000000
    28  H    0.000000   0.000001   0.000005   0.000000   0.000000   0.000000
    29  C    0.000000  -0.000126  -0.000004   0.000000   0.000000   0.000000
    30  H    0.000000   0.000000   0.000000   0.000000   0.000000   0.000000
    31  H    0.000000   0.000149   0.000000   0.000000   0.000000   0.000000
             13         14         15         16         17         18
     1  C   -0.000338   0.000014  -0.000008  -0.000010   0.000006   0.000000
     2  C    0.005328   0.000017  -0.000164   0.000717  -0.000748   0.000004
     3  C   -0.069613  -0.000686   0.003981  -0.008551   0.000287  -0.000018
     4  C    0.312150  -0.067352  -0.002867  -0.070410  -0.004334  -0.000063
     5  C   -0.062191  -0.001201  -0.000102   0.002015  -0.000254   0.000191
     6  C    0.003984  -0.000016   0.000043  -0.000124   0.000014   0.000005
     7  H   -0.000022   0.000000   0.000001  -0.000001   0.000014   0.000000
     8  H   -0.009522   0.000230   0.000548   0.000930   0.009741  -0.000214
     9  H   -0.001856  -0.000317   0.000142  -0.000080   0.000016  -0.000030
    10  H   -0.000017   0.000001   0.000000   0.000001   0.000000   0.000000
    11  C    0.000000   0.000000   0.000000   0.000000   0.000000   0.000000
    12  N    0.000000   0.000000   0.000000   0.000000   0.000000   0.000000
    13  N    7.244001   0.271187  -0.048244   0.265698  -0.043423  -0.065819
    14  C    0.271187   5.296218   0.355730  -0.082832   0.001554   0.004581
    15  H   -0.048244   0.355730   0.609294   0.000707   0.000955  -0.000245
    16  C    0.265698  -0.082832   0.000707   5.305211   0.363782   0.272399
    17  H   -0.043423   0.001554   0.000955   0.363782   0.571384  -0.061668
    18  C   -0.065819   0.004581  -0.000245   0.272399  -0.061668   5.375912
    19  H    0.002427   0.000205   0.000025  -0.043289   0.004068   0.363852
    20  H   -0.001393   0.000003   0.000000  -0.037632  -0.001574   0.367164
    21  H    0.003124  -0.000118   0.000009  -0.037686   0.002102   0.337202
    22  C   -0.060342   0.278260  -0.062992   0.004828  -0.000152  -0.000078
    23  H   -0.002527  -0.038417  -0.002602  -0.000017  -0.000003   0.000003
    24  H    0.004342  -0.041580   0.004756  -0.000019   0.000009  -0.000045
    25  H    0.002784  -0.036893   0.002489  -0.000097   0.000003  -0.000001
    26  C   -0.070266   0.267602  -0.049450  -0.090979   0.004904   0.000849
    27  H    0.002627  -0.036249  -0.000876   0.003943  -0.000035  -0.000106
    28  H    0.001690  -0.046071   0.004348   0.000491   0.000023   0.000804
    29  C   -0.049261  -0.088885  -0.002003   0.273755  -0.037638  -0.075268
    30  H    0.002281   0.004244  -0.000127  -0.038964   0.001228  -0.001937
    31  H    0.001329   0.000814   0.002092  -0.038747  -0.004590   0.003550
             19         20         21         22         23         24
     1  C    0.000000  -0.000002   0.000000  -0.000002  -0.000011   0.000000
     2  C    0.000000  -0.000016  -0.000001   0.000014  -0.000009  -0.000001
     3  C   -0.000002   0.000296  -0.000014  -0.000415  -0.000053   0.000034
     4  C    0.000054   0.002791  -0.000014  -0.004415   0.002038   0.000086
     5  C   -0.000012   0.000135  -0.000009  -0.002247   0.003120  -0.000245
     6  C    0.000001   0.000000   0.000000  -0.000054   0.000088   0.000026
     7  H    0.000000   0.000000   0.000000   0.000000   0.000000   0.000000
     8  H    0.000005  -0.000007   0.000017  -0.000020  -0.000002   0.000001
     9  H    0.000019   0.000017   0.000001   0.000113   0.000356   0.001661
    10  H    0.000000   0.000000   0.000000  -0.000001  -0.000002  -0.000001
    11  C    0.000000   0.000000   0.000000   0.000000   0.000000   0.000000
    12  N    0.000000   0.000000   0.000000   0.000000   0.000000   0.000000
    13  N    0.002427  -0.001393   0.003124  -0.060342  -0.002527   0.004342
    14  C    0.000205   0.000003  -0.000118   0.278260  -0.038417  -0.041580
    15  H    0.000025   0.000000   0.000009  -0.062992  -0.002602   0.004756
    16  C   -0.043289  -0.037632  -0.037686   0.004828  -0.000017  -0.000019
    17  H    0.004068  -0.001574   0.002102  -0.000152  -0.000003   0.000009
    18  C    0.363852   0.367164   0.337202  -0.000078   0.000003  -0.000045
    19  H    0.527890  -0.026417  -0.024536  -0.000104  -0.000001   0.000104
    20  H   -0.026417   0.520348  -0.027059  -0.000001   0.000000   0.000002
    21  H   -0.024536  -0.027059   0.567290  -0.000001   0.000000   0.000002
    22  C   -0.000104  -0.000001  -0.000001   5.384978   0.364803   0.353912
    23  H   -0.000001   0.000000   0.000000   0.364803   0.523524  -0.028457
    24  H    0.000104   0.000002   0.000002   0.353912  -0.028457   0.531033
    25  H    0.000002   0.000000   0.000000   0.345291  -0.027059  -0.022331
    26  C    0.001700  -0.000174   0.000224  -0.055373   0.003887  -0.004877
    27  H   -0.000013   0.000001   0.000003  -0.000005  -0.000079   0.000039
    28  H    0.001823  -0.000041   0.000063  -0.004826   0.000033   0.005421
    29  C   -0.003366   0.003856  -0.000597   0.005013  -0.000141  -0.000054
    30  H    0.000522   0.000087   0.001446  -0.000069   0.000001  -0.000003
    31  H    0.000030  -0.000089   0.000008  -0.000056   0.000003   0.000003
             25         26         27         28         29         30
     1  C    0.000000   0.000000   0.000000   0.000000   0.000000   0.000000
     2  C    0.000000   0.000001   0.000000   0.000000  -0.000003   0.000000
     3  C    0.000012  -0.000117   0.000005   0.000001  -0.000143   0.000001
     4  C    0.000122   0.005269  -0.000080  -0.000135   0.004797  -0.000064
     5  C    0.000035  -0.000050  -0.000001   0.000002  -0.000073   0.000001
     6  C    0.000001   0.000001   0.000000   0.000000   0.000001   0.000000
     7  H    0.000000   0.000000   0.000000   0.000000   0.000000   0.000000
     8  H    0.000000  -0.000046   0.000001   0.000001  -0.000126   0.000000
     9  H    0.000084  -0.000026   0.000001   0.000005  -0.000004   0.000000
    10  H    0.000000   0.000000   0.000000   0.000000   0.000000   0.000000
    11  C    0.000000   0.000000   0.000000   0.000000   0.000000   0.000000
    12  N    0.000000   0.000000   0.000000   0.000000   0.000000   0.000000
    13  N    0.002784  -0.070266   0.002627   0.001690  -0.049261   0.002281
    14  C   -0.036893   0.267602  -0.036249  -0.046071  -0.088885   0.004244
    15  H    0.002489  -0.049450  -0.000876   0.004348  -0.002003  -0.000127
    16  C   -0.000097  -0.090979   0.003943   0.000491   0.273755  -0.038964
    17  H    0.000003   0.004904  -0.000035   0.000023  -0.037638   0.001228
    18  C   -0.000001   0.000849  -0.000106   0.000804  -0.075268  -0.001937
    19  H    0.000002   0.001700  -0.000013   0.001823  -0.003366   0.000522
    20  H    0.000000  -0.000174   0.000001  -0.000041   0.003856   0.000087
    21  H    0.000000   0.000224   0.000003   0.000063  -0.000597   0.001446
    22  C    0.345291  -0.055373  -0.000005  -0.004826   0.005013  -0.000069
    23  H   -0.027059   0.003887  -0.000079   0.000033  -0.000141   0.000001
    24  H   -0.022331  -0.004877   0.000039   0.005421  -0.000054  -0.000003
    25  H    0.548856  -0.003266   0.001619   0.000200  -0.000037  -0.000001
    26  C   -0.003266   5.429312   0.373314   0.369340   0.265289  -0.032497
    27  H    0.001619   0.373314   0.524589  -0.026099  -0.033264   0.000275
    28  H    0.000200   0.369340  -0.026099   0.531006  -0.043742  -0.004026
    29  C   -0.000037   0.265289  -0.033264  -0.043742   5.428291   0.380573
    30  H   -0.000001  -0.032497   0.000275  -0.004026   0.380573   0.514965
    31  H   -0.000002  -0.043805  -0.004084   0.003735   0.368584  -0.027787
             31
     1  C    0.000000
     2  C   -0.000001
     3  C    0.000068
     4  C   -0.000185
     5  C    0.000002
     6  C    0.000000
     7  H    0.000000
     8  H    0.000149
     9  H    0.000000
    10  H    0.000000
    11  C    0.000000
    12  N    0.000000
    13  N    0.001329
    14  C    0.000814
    15  H    0.002092
    16  C   -0.038747
    17  H   -0.004590
    18  C    0.003550
    19  H    0.000030
    20  H   -0.000089
    21  H    0.000008
    22  C   -0.000056
    23  H    0.000003
    24  H    0.000003
    25  H   -0.000002
    26  C   -0.043805
    27  H   -0.004084
    28  H    0.003735
    29  C    0.368584
    30  H   -0.027787
    31  H    0.541253
 Mulliken atomic charges:
              1
     1  C   -0.000305
     2  C   -0.164094
     3  C   -0.173312
     4  C    0.267077
     5  C   -0.165516
     6  C   -0.165963
     7  H    0.204508
     8  H    0.198800
     9  H    0.203684
    10  H    0.205643
    11  C    0.286411
    12  N   -0.476376
    13  N   -0.638118
    14  C   -0.040042
    15  H    0.184559
    16  C   -0.045038
    17  H    0.194327
    18  C   -0.521024
    19  H    0.195013
    20  H    0.199705
    21  H    0.178545
    22  C   -0.546060
    23  H    0.201524
    24  H    0.196181
    25  H    0.188189
    26  C   -0.370767
    27  H    0.194474
    28  H    0.205951
    29  C   -0.395552
    30  H    0.199852
    31  H    0.197723
 Sum of Mulliken atomic charges =   0.00000
 Mulliken charges with hydrogens summed into heavy atoms:
              1
     1  C   -0.000305
     2  C    0.040414
     3  C    0.025488
     4  C    0.267077
     5  C    0.038168
     6  C    0.039680
    11  C    0.286411
    12  N   -0.476376
    13  N   -0.638118
    14  C    0.144517
    16  C    0.149289
    18  C    0.052239
    22  C    0.039833
    26  C    0.029658
    29  C    0.002023
 Sum of Mulliken charges with hydrogens summed into heavy atoms =   0.00000
 Electronic spatial extent (au):  <R**2>=           3845.8599
 Charge=              0.0000 electrons
 Dipole moment (field-independent basis, Debye):
    X=              5.4606    Y=              0.0389    Z=             -0.4504  Tot=              5.4792
 Quadrupole moment (field-independent basis, Debye-Ang):
   XX=           -116.5628   YY=            -86.0425   ZZ=            -88.1750
   XY=             -1.2464   XZ=             -2.8001   YZ=              4.0083
 Traceless Quadrupole moment (field-independent basis, Debye-Ang):
   XX=            -19.6360   YY=             10.8842   ZZ=              8.7518
   XY=             -1.2464   XZ=             -2.8001   YZ=              4.0083
 Octapole moment (field-independent basis, Debye-Ang**2):
  XXX=            229.6519  YYY=              0.1168  ZZZ=             -0.8077  XYY=              2.7163
  XXY=              6.0947  XXZ=              6.4694  XZZ=              0.7294  YZZ=              0.6857
  YYZ=             -0.8964  XYZ=             -9.1795
 Hexadecapole moment (field-independent basis, Debye-Ang**3):
 XXXX=          -5321.3119 YYYY=           -832.7965 ZZZZ=           -401.2958 XXXY=            -38.4294
 XXXZ=            -57.1096 YYYX=             -1.1306 YYYZ=              9.6286 ZZZX=             -2.9789
 ZZZY=             14.5613 XXYY=           -783.8394 XXZZ=           -719.1641 YYZZ=           -195.1685
 XXYZ=             17.2746 YYXZ=             -2.5387 ZZXY=              4.1025
 N-N= 9.509974047839D+02 E-N=-3.317938385652D+03  KE= 6.066789597021D+02
 1|1|UNPC-DESKTOP-K2VF0AK|SP|RTD-B3LYP-FC|3-21G|C13H16N2|MELIH|25-Dec-2
 024|0||# td b3lyp/3-21g geom=connectivity||Title Card Required||0,1|C,
 0,-2.943617,-0.055272,-0.047376|C,0,-2.191033,-1.101858,-0.562047|C,0,
 -0.812573,-1.06001,-0.488186|C,0,-0.163645,0.018177,0.094297|C,0,-0.92
 6507,1.061972,0.606913|C,0,-2.303478,1.029874,0.539778|H,0,-2.684985,-
 1.938136,-1.013594|H,0,-0.219479,-1.860537,-0.877292|H,0,-0.43763,1.90
 14,1.058902|H,0,-2.88576,1.836744,0.936458|C,0,-4.369679,-0.092196,-0.
 119761|N,0,-5.50844,-0.121409,-0.177389|N,0,1.259033,0.031491,0.14772|
 C,0,1.99708448,0.81354205,-0.8719782|H,0,1.68567035,0.53999256,-1.8790
 9267|C,0,1.95416527,-1.24986343,0.46572089|H,0,1.35452465,-2.09397217,
 0.14395303|C,0,2.20252697,-1.34169001,1.97297806|H,0,2.82304134,-0.513
 14064,2.29166916|H,0,1.26451281,-1.2934755,2.51389209|H,0,2.69668726,-
 2.27401702,2.22548509|C,0,1.80412115,2.31484406,-0.66189481|H,0,0.7668
 3891,2.59655169,-0.79903738|H,0,2.10221119,2.57517356,0.34607615|H,0,2
 .40527694,2.87689796,-1.36857065|C,0,3.43816893,0.33680532,-0.63625759
 |H,0,4.0803512,0.5374539,-1.48364824|H,0,3.83737966,0.83716744,0.23757
 125|C,0,3.26618613,-1.16948591,-0.35710908|H,0,4.10419734,-1.59659297,
 0.17695139|H,0,3.14917612,-1.69952871,-1.29549586||Version=IA32W-G09Re
 vA.02|State=1-A|HF=-611.146689|RMSD=3.423e-009|PG=C01 [X(C13H16N2)]||@


 WE STILL HAVE JUDGEMENT HERE,
 THAT WE TEACH BUT BLOODY INSTRUCTIONS,
 WHICH, BEING TAUGHT,
 RETURN TO PLAGUE THE INVENTOR.
           MACBETH ACT I, SCENE VII
 Job cpu time:  0 days  0 hours  6 minutes 13.0 seconds.
 File lengths (MBytes):  RWF=     64 Int=      0 D2E=      0 Chk=      5 Scr=      1
 Normal termination of Gaussian 09 at Wed Dec 25 18:45:44 2024.
