 Entering Link 1 = C:\G09W\l1.exe PID=     14340.
  
 Copyright (c) 1988,1990,1992,1993,1995,1998,2003,2009, Gaussian, Inc.
                  All Rights Reserved.
  
 This is part of the Gaussian(R) 09 program.  It is based on
 the Gaussian(R) 03 system (copyright 2003, Gaussian, Inc.),
 the Gaussian(R) 98 system (copyright 1998, Gaussian, Inc.),
 the Gaussian(R) 94 system (copyright 1995, Gaussian, Inc.),
 the Gaussian 92(TM) system (copyright 1992, Gaussian, Inc.),
 the Gaussian 90(TM) system (copyright 1990, Gaussian, Inc.),
 the Gaussian 88(TM) system (copyright 1988, Gaussian, Inc.),
 the Gaussian 86(TM) system (copyright 1986, Carnegie Mellon
 University), and the Gaussian 82(TM) system (copyright 1983,
 Carnegie Mellon University). Gaussian is a federally registered
 trademark of Gaussian, Inc.
  
 This software contains proprietary and confidential information,
 including trade secrets, belonging to Gaussian, Inc.
  
 This software is provided under written license and may be
 used, copied, transmitted, or stored only in accord with that
 written license.
  
 The following legend is applicable only to US Government
 contracts under FAR:
  
                    RESTRICTED RIGHTS LEGEND
  
 Use, reproduction and disclosure by the US Government is
 subject to restrictions as set forth in subparagraphs (a)
 and (c) of the Commercial Computer Software - Restricted
 Rights clause in FAR 52.227-19.
  
 Gaussian, Inc.
 340 Quinnipiac St., Bldg. 40, Wallingford CT 06492
  
  
 ---------------------------------------------------------------
 Warning -- This program may not be used in any manner that
 competes with the business of Gaussian, Inc. or will provide
 assistance to any competitor of Gaussian, Inc.  The licensee
 of this program is prohibited from giving any competitor of
 Gaussian, Inc. access to this program.  By using this program,
 the user acknowledges that Gaussian, Inc. is engaged in the
 business of creating and licensing software in the field of
 computational chemistry and represents and warrants to the
 licensee that it is not a competitor of Gaussian, Inc. and that
 it will not use this program in any manner prohibited above.
 ---------------------------------------------------------------
  

 Cite this work as:
 Gaussian 09, Revision A.02,
 M. J. Frisch, G. W. Trucks, H. B. Schlegel, G. E. Scuseria, 
 M. A. Robb, J. R. Cheeseman, G. Scalmani, V. Barone, B. Mennucci, 
 G. A. Petersson, H. Nakatsuji, M. Caricato, X. Li, H. P. Hratchian, 
 A. F. Izmaylov, J. Bloino, G. Zheng, J. L. Sonnenberg, M. Hada, 
 M. Ehara, K. Toyota, R. Fukuda, J. Hasegawa, M. Ishida, T. Nakajima, 
 Y. Honda, O. Kitao, H. Nakai, T. Vreven, J. A. Montgomery, Jr., 
 J. E. Peralta, F. Ogliaro, M. Bearpark, J. J. Heyd, E. Brothers, 
 K. N. Kudin, V. N. Staroverov, R. Kobayashi, J. Normand, 
 K. Raghavachari, A. Rendell, J. C. Burant, S. S. Iyengar, J. Tomasi, 
 M. Cossi, N. Rega, J. M. Millam, M. Klene, J. E. Knox, J. B. Cross, 
 V. Bakken, C. Adamo, J. Jaramillo, R. Gomperts, R. E. Stratmann, 
 O. Yazyev, A. J. Austin, R. Cammi, C. Pomelli, J. W. Ochterski, 
 R. L. Martin, K. Morokuma, V. G. Zakrzewski, G. A. Voth, 
 P. Salvador, J. J. Dannenberg, S. Dapprich, A. D. Daniels, 
 O. Farkas, J. B. Foresman, J. V. Ortiz, J. Cioslowski, 
 and D. J. Fox, Gaussian, Inc., Wallingford CT, 2009.
 
 ******************************************
 Gaussian 09:  IA32W-G09RevA.02 11-Jun-2009
                17-Dec-2024 
 ******************************************
 %chk=C:\G09W\Hw5\energy140.chk
 ----------------------------------
 # td b3lyp/3-21g geom=connectivity
 ----------------------------------
 1/38=1,57=2/1;
 2/12=2,17=6,18=5,40=1/2;
 3/5=5,11=2,16=1,25=1,30=1,74=-5/1,2,8,3;
 4//1;
 5/5=2,38=5/2;
 8/6=1,10=1/1;
 9/42=1/14;
 6/7=2,8=2,9=2,10=2/1;
 99/5=1,9=1/99;
 -------------------
 Title Card Required
 -------------------
 Symbolic Z-matrix:
 Charge =  0 Multiplicity = 1
 C                    -2.94453  -0.03717  -0.05158 
 C                    -2.22918  -1.2261   -0.01523 
 C                    -0.85001  -1.19799   0.0515 
 C                    -0.16351   0.00646   0.08157 
 C                    -0.88924   1.19229   0.04453 
 C                    -2.26657   1.17588  -0.0207 
 H                    -2.75228  -2.16049  -0.03819 
 H                    -0.2854   -2.10584   0.08362 
 H                    -0.3711    2.12984   0.06636 
 H                    -2.82015   2.09251  -0.04885 
 C                    -4.37111  -0.05875  -0.11997 
 N                    -5.51027  -0.07566  -0.17455 
 N                     1.25884  -0.00154   0.14396 
 C                     1.97296   1.29694   0.15351 
 H                     1.6612    1.92367  -0.68083 
 C                     1.98403  -1.02073  -0.6694 
 H                     1.40106  -1.29023  -1.54298 
 C                     2.24399  -2.26773   0.17874 
 H                     2.84815  -2.00487   1.03839 
 H                     1.30862  -2.68483   0.53357 
 H                     2.76016  -3.02628  -0.40036 
 C                     1.74835   2.04034   1.46964 
 H                     0.70426   2.3014    1.59553 
 H                     2.04708   1.40464   2.29383 
 H                     2.33245   2.95409   1.4934 
 C                     3.42567   0.84645  -0.06159 
 H                     4.05784   1.65266  -0.40961 
 H                     3.81935   0.46511   0.8727 
 C                     3.28867  -0.29483  -1.08878 
 H                     4.13928  -0.96293  -1.09107 
 H                     3.17735   0.12488  -2.08209 
 
                          Input orientation:                          
 ---------------------------------------------------------------------
 Center     Atomic      Atomic             Coordinates (Angstroms)
 Number     Number       Type             X           Y           Z
 ---------------------------------------------------------------------
      1          6           0       -2.944533   -0.037170   -0.051577
      2          6           0       -2.229182   -1.226103   -0.015226
      3          6           0       -0.850009   -1.197991    0.051503
      4          6           0       -0.163512    0.006458    0.081570
      5          6           0       -0.889235    1.192290    0.044527
      6          6           0       -2.266573    1.175879   -0.020699
      7          1           0       -2.752279   -2.160494   -0.038189
      8          1           0       -0.285399   -2.105841    0.083616
      9          1           0       -0.371099    2.129836    0.066357
     10          1           0       -2.820149    2.092507   -0.048852
     11          6           0       -4.371107   -0.058748   -0.119969
     12          7           0       -5.510267   -0.075658   -0.174552
     13          7           0        1.258841   -0.001536    0.143955
     14          6           0        1.972961    1.296943    0.153509
     15          1           0        1.661205    1.923665   -0.680826
     16          6           0        1.984028   -1.020731   -0.669401
     17          1           0        1.401064   -1.290234   -1.542982
     18          6           0        2.243990   -2.267732    0.178744
     19          1           0        2.848145   -2.004872    1.038393
     20          1           0        1.308623   -2.684829    0.533570
     21          1           0        2.760156   -3.026284   -0.400358
     22          6           0        1.748350    2.040336    1.469636
     23          1           0        0.704263    2.301402    1.595526
     24          1           0        2.047083    1.404644    2.293827
     25          1           0        2.332455    2.954087    1.493397
     26          6           0        3.425668    0.846452   -0.061588
     27          1           0        4.057843    1.652657   -0.409610
     28          1           0        3.819353    0.465114    0.872704
     29          6           0        3.288670   -0.294828   -1.088782
     30          1           0        4.139278   -0.962931   -1.091065
     31          1           0        3.177351    0.124875   -2.082092
 ---------------------------------------------------------------------
                    Distance matrix (angstroms):
                    1          2          3          4          5
     1  C    0.000000
     2  C    1.388024   0.000000
     3  C    2.396907   1.381072   0.000000
     4  C    2.784548   2.407399   1.386679   0.000000
     5  C    2.396885   2.765439   2.390613   1.390771   0.000000
     6  C    1.389990   2.402279   2.765344   2.408500   1.378979
     7  H    2.132052   1.071095   2.133797   3.378126   3.836526
     8  H    3.371746   2.135884   1.069583   2.115814   3.353180
     9  H    3.366361   3.836855   3.362143   2.133555   1.071417
    10  H    2.133308   3.370986   3.836522   3.380286   2.132496
    11  C    1.428375   2.441625   3.704782   4.212924   3.703456
    12  N    2.568968   3.480579   4.798827   5.353516   4.796835
    13  N    4.208070   3.700163   2.426376   1.423743   2.459540
    14  C    5.099379   4.904308   3.768854   2.497007   2.866181
    15  H    5.045161   5.049671   4.072743   2.754364   2.750598
    16  C    5.063577   4.268637   2.929657   2.496198   3.696322
    17  H    4.762213   3.939142   2.760112   2.601630   3.732101
    18  C    5.652365   4.596943   3.276182   3.313223   4.669782
    19  H    6.214098   5.243648   3.911695   3.745803   5.017731
    20  H    5.043989   3.865892   2.665101   3.100727   4.483502
    21  H    6.449801   5.318127   4.071870   4.240002   5.595744
    22  C    5.352876   5.356791   4.387407   3.117468   3.115602
    23  H    4.636333   4.862398   4.128622   2.883030   2.484948
    24  H    5.700524   5.526210   4.493870   3.425746   3.704917
    25  H    6.259486   6.368553   5.426499   4.112375   3.947460
    26  C    6.431201   6.022870   4.740670   3.688942   4.330040
    27  H    7.212279   6.926000   5.694368   4.557528   4.989164
    28  H    6.845199   6.342982   5.024265   4.086499   4.835852
    29  C    6.324160   5.697937   4.386869   3.657602   4.577204
    30  H    7.219276   6.464052   5.123836   4.563857   5.587530
    31  H    6.451876   5.943709   4.745717   3.982062   4.711581
                    6          7          8          9         10
     6  C    0.000000
     7  H    3.371587   0.000000
     8  H    3.834791   2.470490   0.000000
     9  H    2.123778   4.907940   4.236579   0.000000
    10  H    1.071189   4.253556   4.905979   2.452043   0.000000
    11  C    2.441971   2.654172   4.574390   4.563407   2.653003
    12  N    3.480168   3.460005   5.611376   5.597615   3.457380
    13  N    3.720479   4.558877   2.610827   2.684301   4.589156
    14  C    4.244839   5.858200   4.084607   2.489161   4.862898
    15  H    4.052455   6.047494   4.539885   2.175097   4.528844
    16  C    4.828407   4.912239   2.625794   4.001754   5.758251
    17  H    4.674465   4.502445   2.480966   4.174615   5.611951
    18  C    5.678328   5.002126   2.536349   5.117609   6.686478
    19  H    6.115488   5.705086   3.277330   5.329559   7.078148
    20  H    5.290964   4.134339   1.754591   5.120620   6.341049
    21  H    6.562798   5.591753   3.218206   6.050468   7.580593
    22  C    4.368981   6.338468   4.821615   2.543476   4.814532
    23  H    3.564387   5.875817   4.763307   1.877285   3.894753
    24  H    4.900713   6.417350   4.759098   3.366768   5.445296
    25  H    5.158059   7.372870   5.868860   3.166234   5.447034
    26  C    5.701912   6.870903   4.744380   4.009848   6.368912
    27  H    6.354275   7.813823   5.764836   4.479930   6.901477
    28  H    6.192080   7.135117   4.907287   4.580544   6.897874
    29  C    5.845041   6.409175   4.174716   4.539521   6.640669
    30  H    6.837771   7.073631   4.718462   5.590021   7.671736
    31  H    5.915256   6.675400   4.653710   4.607298   6.631413
                   11         12         13         14         15
    11  C    0.000000
    12  N    1.140592   0.000000
    13  N    5.636421   6.777003   0.000000
    14  C    6.493065   7.615140   1.481926   0.000000
    15  H    6.374426   7.462146   2.132736   1.089077   0.000000
    16  C    6.450971   7.569841   1.492047   2.459454   2.962063
    17  H    6.071201   7.149426   2.127611   3.146209   3.337684
    18  C    6.980569   8.065885   2.471310   3.575053   4.318137
    19  H    7.566162   8.663496   2.709108   3.528590   4.449489
    20  H    6.291482   7.335289   2.711888   4.054663   4.778838
    21  H    7.729153   8.783910   3.420428   4.429079   5.078224
    22  C    6.661888   7.737462   2.483202   1.528161   2.155388
    23  H    5.854282   6.885054   2.778154   2.167475   2.498040
    24  H    7.011497   8.086886   2.687121   2.144308   3.044150
    25  H    7.524485   8.571447   3.421893   2.161172   2.497918
    26  C    7.849363   8.984096   2.335909   1.536088   2.158049
    27  H    8.605812   9.725793   3.298060   2.188691   2.427113
    28  H    8.267011   9.403776   2.702788   2.149034   3.032892
    29  C    7.724410   8.849019   2.392878   2.410002   2.781507
    30  H    8.613201   9.733497   3.278181   3.368816   3.826432
    31  H    7.801465   8.896832   2.941419   2.796821   2.738227
                   16         17         18         19         20
    16  C    0.000000
    17  H    1.084261   0.000000
    18  C    1.530340   2.151829   0.000000
    19  H    2.152160   3.044380   1.083096   0.000000
    20  H    2.161604   2.503100   1.083874   1.757076   0.000000
    21  H    2.167257   2.483263   1.084983   1.766643   1.759478
    22  C    3.741812   4.504351   4.524546   4.214170   4.837020
    23  H    4.219510   4.820333   5.025437   4.842584   5.133760
    24  H    3.829771   4.732950   4.242487   3.720567   4.513050
    25  H    4.538533   5.301071   5.385493   5.006420   5.810927
    26  C    2.436009   3.295297   3.339501   3.110232   4.160053
    27  H    3.393406   4.123544   4.359550   4.115532   5.221262
    28  H    2.820327   3.842514   3.229830   2.659235   4.042390
    29  C    1.550776   2.181785   2.567164   2.764632   3.502102
    30  H    2.196871   2.794490   2.628124   2.699492   3.690119
    31  H    2.175346   2.334174   3.421565   3.792311   4.269457
                   21         22         23         24         25
    21  H    0.000000
    22  C    5.494659   0.000000
    23  H    6.049338   1.083569   0.000000
    24  H    5.234523   1.082883   1.759250   0.000000
    25  H    6.287613   1.084751   1.757111   1.767173   0.000000
    26  C    3.944079   2.565814   3.502706   2.785687   2.838171
    27  H    4.855571   3.002602   3.960800   3.378348   2.879604
    28  H    3.864253   2.669589   3.687575   2.458303   2.964981
    29  C    2.866027   3.790921   4.541484   3.983941   4.258808
    30  H    2.576136   4.614471   5.447290   4.630355   5.028627
    31  H    3.596121   4.280865   4.937439   4.697231   4.637069
                   26         27         28         29         30
    26  C    0.000000
    27  H    1.082003   0.000000
    28  H    1.083193   1.763934   0.000000
    29  C    1.541563   2.201272   2.169462   0.000000
    30  H    2.200667   2.704129   2.449093   1.081620   0.000000
    31  H    2.159808   2.430346   3.042819   1.084070   1.758056
                   31
    31  H    0.000000
 Stoichiometry    C13H16N2
 Framework group  C1[X(C13H16N2)]
 Deg. of freedom    87
 Full point group                 C1      NOp   1
 Largest Abelian subgroup         C1      NOp   1
 Largest concise Abelian subgroup C1      NOp   1
                         Standard orientation:                         
 ---------------------------------------------------------------------
 Center     Atomic      Atomic             Coordinates (Angstroms)
 Number     Number       Type             X           Y           Z
 ---------------------------------------------------------------------
      1          6           0       -2.944956   -0.026826   -0.054892
      2          6           0       -2.250469   -1.187686    0.256075
      3          6           0       -0.870950   -1.168774    0.318759
      4          6           0       -0.163466   -0.001719    0.073138
      5          6           0       -0.868378    1.156144   -0.237822
      6          6           0       -2.245856    1.148931   -0.301728
      7          1           0       -2.789849   -2.093147    0.447006
      8          1           0       -0.322270   -2.054503    0.560504
      9          1           0       -0.333904    2.064500   -0.430595
     10          1           0       -2.783346    2.043922   -0.541604
     11          6           0       -4.371757   -0.038946   -0.120841
     12          7           0       -5.511092   -0.048305   -0.173548
     13          7           0        1.258591   -0.019683    0.140028
     14          6           0        1.995318    1.233673   -0.147095
     15          1           0        1.693737    1.656998   -1.104139
     16          6           0        1.965033   -1.210966   -0.414938
     17          1           0        1.376574   -1.664055   -1.204906
     18          6           0        2.203995   -2.233779    0.698027
     19          1           0        2.813512   -1.790724    1.476030
     20          1           0        1.261831   -2.541896    1.136405
     21          1           0        2.706239   -3.113967    0.310461
     22          6           0        1.785055    2.263583    0.962117
     23          1           0        0.745818    2.564570    1.021412
     24          1           0        2.073447    1.829421    1.911311
     25          1           0        2.385072    3.148091    0.776895
     26          6           0        3.439710    0.720803   -0.248398
     27          1           0        4.085539    1.414333   -0.770559
     28          1           0        3.827598    0.557822    0.749744
     29          6           0        3.281750   -0.623582   -0.986026
     30          1           0        4.120542   -1.288872   -0.832015
     31          1           0        3.176797   -0.441714   -2.049566
 ---------------------------------------------------------------------
 Rotational constants (GHZ):      1.4236928      0.3277481      0.2828638
 Standard basis: 3-21G (6D, 7F)
 There are   167 symmetry adapted basis functions of A   symmetry.
 Integral buffers will be    262144 words long.
 Raffenetti 2 integral format.
 Two-electron integral symmetry is turned on.
   167 basis functions,   273 primitive gaussians,   167 cartesian basis functions
    54 alpha electrons       54 beta electrons
       nuclear repulsion energy       953.1840474130 Hartrees.
 NAtoms=   31 NActive=   31 NUniq=   31 SFac= 7.50D-01 NAtFMM=   80 NAOKFM=F Big=F
 One-electron integrals computed using PRISM.
 NBasis=   167 RedAO= T  NBF=   167
 NBsUse=   167 1.00D-06 NBFU=   167
 Harris functional with IExCor=  402 diagonalized for initial guess.
 ExpMin= 1.83D-01 ExpMax= 2.43D+02 ExpMxC= 2.43D+02 IAcc=1 IRadAn=         1 AccDes= 0.00D+00
 HarFok:  IExCor=  402 AccDes= 0.00D+00 IRadAn=         1 IDoV= 1
 ScaDFX=  1.000000  1.000000  1.000000  1.000000
 FoFCou: FMM=F IPFlag=           0 FMFlag=      100000 FMFlg1=           0
         NFxFlg=           0 DoJE=T BraDBF=F KetDBF=T FulRan=T
         Omega=  0.000000  0.000000  1.000000  0.000000  0.000000 ICntrl=     500 IOpCl=  0
         NMat0=    1 NMatS0=    1 NMatT0=    0 NMatD0=    1 NMtDS0=    0 NMtDT0=    0
         I1Cent=           4 NGrid=           0.
 Petite list used in FoFCou.
 Initial guess orbital symmetries:
       Occupied  (A) (A) (A) (A) (A) (A) (A) (A) (A) (A) (A) (A)
                 (A) (A) (A) (A) (A) (A) (A) (A) (A) (A) (A) (A)
                 (A) (A) (A) (A) (A) (A) (A) (A) (A) (A) (A) (A)
                 (A) (A) (A) (A) (A) (A) (A) (A) (A) (A) (A) (A)
                 (A) (A) (A) (A) (A) (A)
       Virtual   (A) (A) (A) (A) (A) (A) (A) (A) (A) (A) (A) (A)
                 (A) (A) (A) (A) (A) (A) (A) (A) (A) (A) (A) (A)
                 (A) (A) (A) (A) (A) (A) (A) (A) (A) (A) (A) (A)
                 (A) (A) (A) (A) (A) (A) (A) (A) (A) (A) (A) (A)
                 (A) (A) (A) (A) (A) (A) (A) (A) (A) (A) (A) (A)
                 (A) (A) (A) (A) (A) (A) (A) (A) (A) (A) (A) (A)
                 (A) (A) (A) (A) (A) (A) (A) (A) (A) (A) (A) (A)
                 (A) (A) (A) (A) (A) (A) (A) (A) (A) (A) (A) (A)
                 (A) (A) (A) (A) (A) (A) (A) (A) (A) (A) (A) (A)
                 (A) (A) (A) (A) (A)
 The electronic state of the initial guess is 1-A.
 Requested convergence on RMS density matrix=1.00D-08 within 128 cycles.
 Requested convergence on MAX density matrix=1.00D-06.
 Requested convergence on             energy=1.00D-06.
 No special actions if energy rises.
 Integral accuracy reduced to 1.0D-05 until final iterations.
 Initial convergence to 1.0D-05 achieved.  Increase integral accuracy.
 SCF Done:  E(RB3LYP) =  -611.150447651     A.U. after   15 cycles
             Convg  =    0.7973D-08             -V/T =  2.0074
 ExpMin= 1.83D-01 ExpMax= 2.43D+02 ExpMxC= 2.43D+02 IAcc=1 IRadAn=         1 AccDes= 0.00D+00
 HarFok:  IExCor=  205 AccDes= 0.00D+00 IRadAn=         1 IDoV=-2
 ScaDFX=  1.000000  1.000000  1.000000  1.000000
 Range of M.O.s used for correlation:    16   167
 NBasis=   167 NAE=    54 NBE=    54 NFC=    15 NFV=     0
 NROrb=    152 NOA=    39 NOB=    39 NVA=   113 NVB=   113
 Would need an additional   268100000 words for in-memory AO integral storage.
 Orbital symmetries:
       Occupied  (A) (A) (A) (A) (A) (A) (A) (A) (A) (A) (A) (A)
                 (A) (A) (A) (A) (A) (A) (A) (A) (A) (A) (A) (A)
                 (A) (A) (A) (A) (A) (A) (A) (A) (A) (A) (A) (A)
                 (A) (A) (A) (A) (A) (A) (A) (A) (A) (A) (A) (A)
                 (A) (A) (A) (A) (A) (A)
       Virtual   (A) (A) (A) (A) (A) (A) (A) (A) (A) (A) (A) (A)
                 (A) (A) (A) (A) (A) (A) (A) (A) (A) (A) (A) (A)
                 (A) (A) (A) (A) (A) (A) (A) (A) (A) (A) (A) (A)
                 (A) (A) (A) (A) (A) (A) (A) (A) (A) (A) (A) (A)
                 (A) (A) (A) (A) (A) (A) (A) (A) (A) (A) (A) (A)
                 (A) (A) (A) (A) (A) (A) (A) (A) (A) (A) (A) (A)
                 (A) (A) (A) (A) (A) (A) (A) (A) (A) (A) (A) (A)
                 (A) (A) (A) (A) (A) (A) (A) (A) (A) (A) (A) (A)
                 (A) (A) (A) (A) (A) (A) (A) (A) (A) (A) (A) (A)
                 (A) (A) (A) (A) (A)
    12 initial guesses have been made.
 Convergence on wavefunction:    0.001000000000000
 Iteration     1 Dimension    12 NMult    12
 CISAX will form    12 AO SS matrices at one time.
 New state      1 was old state      2
 New state      2 was old state      1
 Iteration     2 Dimension    18 NMult    18
 Iteration     3 Dimension    24 NMult    24
 Iteration     4 Dimension    30 NMult    30
 Iteration     5 Dimension    36 NMult    36
 Iteration     6 Dimension    38 NMult    38
 ***********************************************************************
 Excited states from <AA,BB:AA,BB> singles matrix:
 ***********************************************************************
 
 Ground to excited state transition electric dipole moments (Au):
       state          X           Y           Z        Dip. S.      Osc.
         1         0.2230      0.3670     -0.0885      0.1923      0.0218
         2         1.9821     -0.0312      0.0168      3.9299      0.4621
         3         0.1134     -0.4345      0.1128      0.2144      0.0317
 Ground to excited state transition velocity dipole moments (Au):
       state          X           Y           Z        Dip. S.      Osc.
         1        -0.0333     -0.0550      0.0155      0.0044      0.0171
         2        -0.2844      0.0041      0.0042      0.0809      0.3057
         3        -0.0188      0.0804     -0.0212      0.0073      0.0218
 Ground to excited state transition magnetic dipole moments (Au):
       state          X           Y           Z
         1        -0.0299      0.1255      0.7355
         2         0.0837     -0.0532     -0.0763
         3         0.0365     -0.0846     -0.4378
 <0|del|b> * <b|rxdel|0> + <0|del|b> * <b|delr+rdel|0>
 Rotatory Strengths (R) in cgs (10**-40 erg-esu-cm/Gauss)
       state          XX          YY          ZZ    R(velocity)
         1        10.0922     22.1512     -9.4035      7.6133
 Total R(velocity) tensor for State=          1
                 1             2             3 
      1   0.100922D+02  0.518172D+01  0.400820D+02
      2  -0.389839D+01  0.221512D+02  0.701814D+02
      3   0.100806D+00 -0.271241D+01 -0.940349D+01
 R(velocity) tensor in inp. orien. for State=          1
                 1             2             3 
      1   0.101925D+02 -0.409186D+01  0.389076D+02
      2  -0.380643D+01  0.524206D+01  0.743633D+02
      3  -0.809237D+00  0.763327D+00  0.740533D+01
         2        -1.5900    -38.6106    -57.3779    -32.5262
 Total R(velocity) tensor for State=          2
                 1             2             3 
      1  -0.159004D+01 -0.982165D+02 -0.124932D+02
      2  -0.295730D+01 -0.386106D+02 -0.162004D+03
      3  -0.615333D-01  0.552637D+02 -0.573779D+02
 R(velocity) tensor in inp. orien. for State=          2
                 1             2             3 
      1   0.110498D+00 -0.924988D+02 -0.320014D+02
      2  -0.243533D+01 -0.173784D+02 -0.152744D+03
      3  -0.179833D+01  0.649956D+02 -0.803107D+02
         3         4.5396      4.9060     -3.7259      1.9066
 Total R(velocity) tensor for State=          3
                 1             2             3 
      1   0.453963D+01 -0.685515D+00 -0.662469D+01
      2  -0.144570D+01  0.490596D+01  0.198901D+02
      3   0.241369D+01 -0.418158D+00 -0.372589D+01
 R(velocity) tensor in inp. orien. for State=          3
                 1             2             3 
      1   0.456255D+01  0.934121D+00 -0.696388D+01
      2  -0.190459D+01  0.729683D-01  0.206716D+02
      3   0.201117D+01  0.520002D+00  0.108419D+01
 1/2[<0|r|b>*<b|rxdel|0> + (<0|rxdel|b>*<b|r|0>)*]
 Rotatory Strengths (R) in cgs (10**-40 erg-esu-cm/Gauss)
       state          XX          YY          ZZ     R(length)     R(au)
         1         4.7105    -32.5666     46.0410      6.0616      0.0129
         2      -117.3236     -1.1746      0.9065    -39.1972     -0.0831
         3        -2.9290    -25.9896     34.9174      1.9996      0.0042
  1/2[<0|del|b>*<b|r|0> + (<0|r|b>*<b|del|0>)*] (Au)
       state          X           Y           Z        Dip. S.   Osc.(frdel)
         1        -0.0074     -0.0202     -0.0014      0.0290      0.0193
         2        -0.5636     -0.0001      0.0001      0.5637      0.3758
         3        -0.0021     -0.0349     -0.0024      0.0395      0.0263
 Ground to excited state transition densities written to RWF  633

 Excitation energies and oscillator strengths:
 
 Excited State   1:      Singlet-A      4.6312 eV  267.71 nm  f=0.0218  <S**2>=0.000
      53 -> 55         0.18869
      54 -> 55         0.12331
      54 -> 56         0.66816
 This state for optimization and/or second-order correction.
 Copying the excited state density for this state as the 1-particle RhoCI density.
 
 Excited State   2:      Singlet-A      4.7999 eV  258.31 nm  f=0.4621  <S**2>=0.000
      54 -> 55         0.68345
      54 -> 56        -0.11948
 
 Excited State   3:      Singlet-A      6.0381 eV  205.34 nm  f=0.0317  <S**2>=0.000
      52 -> 56        -0.41398
      53 -> 55         0.55187
      54 -> 56        -0.14110
 SavETr:  write IOETrn=   770 NScale= 10 NData=  16 NLR=1 LETran=      62.

 **********************************************************************

            Population analysis using the SCF density.

 **********************************************************************

 Orbital symmetries:
       Occupied  (A) (A) (A) (A) (A) (A) (A) (A) (A) (A) (A) (A)
                 (A) (A) (A) (A) (A) (A) (A) (A) (A) (A) (A) (A)
                 (A) (A) (A) (A) (A) (A) (A) (A) (A) (A) (A) (A)
                 (A) (A) (A) (A) (A) (A) (A) (A) (A) (A) (A) (A)
                 (A) (A) (A) (A) (A) (A)
       Virtual   (A) (A) (A) (A) (A) (A) (A) (A) (A) (A) (A) (A)
                 (A) (A) (A) (A) (A) (A) (A) (A) (A) (A) (A) (A)
                 (A) (A) (A) (A) (A) (A) (A) (A) (A) (A) (A) (A)
                 (A) (A) (A) (A) (A) (A) (A) (A) (A) (A) (A) (A)
                 (A) (A) (A) (A) (A) (A) (A) (A) (A) (A) (A) (A)
                 (A) (A) (A) (A) (A) (A) (A) (A) (A) (A) (A) (A)
                 (A) (A) (A) (A) (A) (A) (A) (A) (A) (A) (A) (A)
                 (A) (A) (A) (A) (A) (A) (A) (A) (A) (A) (A) (A)
                 (A) (A) (A) (A) (A) (A) (A) (A) (A) (A) (A) (A)
                 (A) (A) (A) (A) (A)
 The electronic state is 1-A.
 Alpha  occ. eigenvalues --  -14.27272 -14.23466 -10.17847 -10.16890 -10.16735
 Alpha  occ. eigenvalues --  -10.15815 -10.14619 -10.14341 -10.14293 -10.13267
 Alpha  occ. eigenvalues --  -10.13170 -10.13099 -10.13031 -10.11530 -10.11498
 Alpha  occ. eigenvalues --   -0.96326  -0.92331  -0.88023  -0.81474  -0.79743
 Alpha  occ. eigenvalues --   -0.76669  -0.75579  -0.72564  -0.66026  -0.64896
 Alpha  occ. eigenvalues --   -0.64099  -0.58908  -0.58049  -0.56873  -0.53557
 Alpha  occ. eigenvalues --   -0.49911  -0.48434  -0.47093  -0.46939  -0.44981
 Alpha  occ. eigenvalues --   -0.43273  -0.42738  -0.42330  -0.41543  -0.40351
 Alpha  occ. eigenvalues --   -0.39747  -0.38545  -0.38192  -0.37806  -0.35531
 Alpha  occ. eigenvalues --   -0.34879  -0.34317  -0.34027  -0.33837  -0.33224
 Alpha  occ. eigenvalues --   -0.32691  -0.28208  -0.26859  -0.20617
 Alpha virt. eigenvalues --   -0.02077  -0.00832   0.06449   0.09084   0.10373
 Alpha virt. eigenvalues --    0.10664   0.11859   0.12462   0.13577   0.15127
 Alpha virt. eigenvalues --    0.15830   0.16166   0.16268   0.18258   0.18333
 Alpha virt. eigenvalues --    0.18998   0.20026   0.20307   0.20638   0.21467
 Alpha virt. eigenvalues --    0.22043   0.23232   0.23405   0.24726   0.26485
 Alpha virt. eigenvalues --    0.27258   0.28449   0.29645   0.31423   0.31648
 Alpha virt. eigenvalues --    0.35959   0.37189   0.39279   0.39577   0.51964
 Alpha virt. eigenvalues --    0.54775   0.60789   0.64059   0.66273   0.66333
 Alpha virt. eigenvalues --    0.67718   0.68566   0.69944   0.70921   0.71157
 Alpha virt. eigenvalues --    0.71962   0.72855   0.73607   0.75160   0.76083
 Alpha virt. eigenvalues --    0.76899   0.78007   0.78137   0.78809   0.79912
 Alpha virt. eigenvalues --    0.80138   0.81397   0.85096   0.86382   0.87302
 Alpha virt. eigenvalues --    0.88913   0.89944   0.92852   0.94620   0.94976
 Alpha virt. eigenvalues --    0.96489   0.96759   0.99517   1.00591   1.01832
 Alpha virt. eigenvalues --    1.02833   1.04694   1.05678   1.07472   1.07885
 Alpha virt. eigenvalues --    1.08576   1.10206   1.10918   1.12026   1.13993
 Alpha virt. eigenvalues --    1.14681   1.16525   1.17790   1.18587   1.21491
 Alpha virt. eigenvalues --    1.22313   1.24379   1.27868   1.29342   1.30478
 Alpha virt. eigenvalues --    1.33105   1.37409   1.42123   1.43257   1.49969
 Alpha virt. eigenvalues --    1.52377   1.52503   1.54756   1.55411   1.61529
 Alpha virt. eigenvalues --    1.73942   1.76199   1.79455   1.90782   1.91161
 Alpha virt. eigenvalues --    1.96437   2.01479   2.19233   2.31859   2.42954
 Alpha virt. eigenvalues --    2.51312   3.00637   3.05390
          Condensed to atoms (all electrons):
              1          2          3          4          5          6
     1  C    5.439605   0.448622  -0.087174  -0.031127  -0.086921   0.450017
     2  C    0.448622   5.119036   0.454182  -0.061526  -0.032617  -0.055346
     3  C   -0.087174   0.454182   5.222757   0.417921  -0.065911  -0.032151
     4  C   -0.031127  -0.061526   0.417921   4.943830   0.394031  -0.055273
     5  C   -0.086921  -0.032617  -0.065911   0.394031   5.247277   0.441527
     6  C    0.450017  -0.055346  -0.032151  -0.055273   0.441527   5.126015
     7  H   -0.042827   0.396697  -0.034712   0.004097  -0.000155   0.003786
     8  H    0.004296  -0.036191   0.380879  -0.050717   0.004579  -0.000206
     9  H    0.004557  -0.000180   0.004112  -0.051582   0.392385  -0.039568
    10  H   -0.042555   0.003818  -0.000170   0.003965  -0.035127   0.397002
    11  C    0.070112  -0.076896   0.004470  -0.000122   0.004640  -0.076709
    12  N   -0.118798  -0.000688  -0.000006   0.000000  -0.000006  -0.000728
    13  N   -0.000365   0.004190  -0.060327   0.296195  -0.054932   0.004470
    14  C    0.000010  -0.000124   0.002411  -0.061836  -0.004581   0.000205
    15  H   -0.000003   0.000002   0.000110  -0.001911   0.002233  -0.000221
    16  C    0.000020  -0.000033  -0.004627  -0.063724   0.001284  -0.000098
    17  H   -0.000017  -0.000019   0.004356  -0.001307   0.001120  -0.000038
    18  C   -0.000004   0.000153  -0.009357   0.000114  -0.000146   0.000003
    19  H    0.000000  -0.000002   0.000191   0.000119   0.000005   0.000000
    20  H    0.000001   0.000086  -0.002596   0.000192  -0.000001  -0.000001
    21  H    0.000000  -0.000001   0.000141  -0.000007   0.000003   0.000000
    22  C   -0.000010   0.000008  -0.000135  -0.002434  -0.010048   0.000114
    23  H   -0.000010  -0.000005  -0.000017   0.000238   0.002675   0.000314
    24  H    0.000001   0.000000  -0.000020   0.000564   0.000041  -0.000010
    25  H    0.000000   0.000000   0.000000   0.000031   0.000044  -0.000002
    26  C    0.000000   0.000001  -0.000125   0.004896   0.000153  -0.000003
    27  H    0.000000   0.000000   0.000001  -0.000084   0.000008   0.000000
    28  H    0.000000   0.000000   0.000004  -0.000109  -0.000009   0.000000
    29  C    0.000000   0.000000   0.000077   0.004692  -0.000141   0.000002
    30  H    0.000000   0.000000  -0.000001  -0.000060   0.000000   0.000000
    31  H    0.000000   0.000000   0.000012  -0.000152  -0.000003   0.000000
              7          8          9         10         11         12
     1  C   -0.042827   0.004296   0.004557  -0.042555   0.070112  -0.118798
     2  C    0.396697  -0.036191  -0.000180   0.003818  -0.076896  -0.000688
     3  C   -0.034712   0.380879   0.004112  -0.000170   0.004470  -0.000006
     4  C    0.004097  -0.050717  -0.051582   0.003965  -0.000122   0.000000
     5  C   -0.000155   0.004579   0.392385  -0.035127   0.004640  -0.000006
     6  C    0.003786  -0.000206  -0.039568   0.397002  -0.076709  -0.000728
     7  H    0.480902  -0.003752   0.000002  -0.000053  -0.006275  -0.000094
     8  H   -0.003752   0.484984  -0.000046   0.000002  -0.000080   0.000000
     9  H    0.000002  -0.000046   0.497795  -0.004102  -0.000082   0.000000
    10  H   -0.000053   0.000002  -0.004102   0.480978  -0.006229  -0.000094
    11  C   -0.006275  -0.000080  -0.000082  -0.006229   4.956604   0.849926
    12  N   -0.000094   0.000000   0.000000  -0.000094   0.849926   6.753483
    13  N   -0.000017  -0.007712  -0.008039  -0.000015   0.000000   0.000000
    14  C    0.000001   0.000013   0.002630  -0.000003   0.000000   0.000000
    15  H    0.000000   0.000004   0.004607   0.000001   0.000000   0.000000
    16  C   -0.000003   0.000337  -0.000016   0.000001   0.000000   0.000000
    17  H   -0.000001   0.000321   0.000023   0.000000   0.000000   0.000000
    18  C    0.000004   0.000833  -0.000004   0.000000   0.000000   0.000000
    19  H    0.000000  -0.000130   0.000000   0.000000   0.000000   0.000000
    20  H   -0.000009   0.015266   0.000000   0.000000   0.000000   0.000000
    21  H    0.000000   0.000206   0.000000   0.000000   0.000000   0.000000
    22  C    0.000000  -0.000006  -0.004163   0.000007   0.000000   0.000000
    23  H    0.000000  -0.000001   0.003745  -0.000001   0.000000   0.000000
    24  H    0.000000   0.000000   0.000084   0.000000   0.000000   0.000000
    25  H    0.000000   0.000000   0.000419   0.000000   0.000000   0.000000
    26  C    0.000000  -0.000010   0.000057   0.000000   0.000000   0.000000
    27  H    0.000000   0.000000   0.000003   0.000000   0.000000   0.000000
    28  H    0.000000   0.000000   0.000002   0.000000   0.000000   0.000000
    29  C    0.000000   0.000093  -0.000022   0.000000   0.000000   0.000000
    30  H    0.000000  -0.000001   0.000000   0.000000   0.000000   0.000000
    31  H    0.000000  -0.000001  -0.000001   0.000000   0.000000   0.000000
             13         14         15         16         17         18
     1  C   -0.000365   0.000010  -0.000003   0.000020  -0.000017  -0.000004
     2  C    0.004190  -0.000124   0.000002  -0.000033  -0.000019   0.000153
     3  C   -0.060327   0.002411   0.000110  -0.004627   0.004356  -0.009357
     4  C    0.296195  -0.061836  -0.001911  -0.063724  -0.001307   0.000114
     5  C   -0.054932  -0.004581   0.002233   0.001284   0.001120  -0.000146
     6  C    0.004470   0.000205  -0.000221  -0.000098  -0.000038   0.000003
     7  H   -0.000017   0.000001   0.000000  -0.000003  -0.000001   0.000004
     8  H   -0.007712   0.000013   0.000004   0.000337   0.000321   0.000833
     9  H   -0.008039   0.002630   0.004607  -0.000016   0.000023  -0.000004
    10  H   -0.000015  -0.000003   0.000001   0.000001   0.000000   0.000000
    11  C    0.000000   0.000000   0.000000   0.000000   0.000000   0.000000
    12  N    0.000000   0.000000   0.000000   0.000000   0.000000   0.000000
    13  N    7.266206   0.254157  -0.047266   0.259584  -0.040066  -0.064602
    14  C    0.254157   5.310100   0.352880  -0.078893   0.001064   0.005010
    15  H   -0.047266   0.352880   0.598004   0.000785   0.000934  -0.000229
    16  C    0.259584  -0.078893   0.000785   5.316854   0.370060   0.265889
    17  H   -0.040066   0.001064   0.000934   0.370060   0.549478  -0.061319
    18  C   -0.064602   0.005010  -0.000229   0.265889  -0.061319   5.414629
    19  H    0.002314   0.000164   0.000025  -0.042485   0.004025   0.361438
    20  H   -0.001271  -0.000055  -0.000002  -0.041413  -0.002365   0.358729
    21  H    0.003006  -0.000128   0.000008  -0.037619   0.001892   0.339730
    22  C   -0.054813   0.279205  -0.061118   0.004351  -0.000134  -0.000089
    23  H   -0.002513  -0.041877  -0.004095  -0.000026  -0.000004   0.000004
    24  H    0.002827  -0.041281   0.004554   0.000036   0.000007  -0.000040
    25  H    0.002748  -0.038596   0.001657  -0.000087   0.000003  -0.000001
    26  C   -0.068150   0.271895  -0.045928  -0.091712   0.004688   0.000648
    27  H    0.002622  -0.037129  -0.001173   0.004036  -0.000038  -0.000099
    28  H    0.001136  -0.046433   0.004219   0.000526   0.000013   0.000893
    29  C   -0.052055  -0.091400  -0.001793   0.274300  -0.035643  -0.071920
    30  H    0.002302   0.004294  -0.000114  -0.039090   0.001324  -0.002374
    31  H    0.001236   0.000849   0.002010  -0.039441  -0.004395   0.003525
             19         20         21         22         23         24
     1  C    0.000000   0.000001   0.000000  -0.000010  -0.000010   0.000001
     2  C   -0.000002   0.000086  -0.000001   0.000008  -0.000005   0.000000
     3  C    0.000191  -0.002596   0.000141  -0.000135  -0.000017  -0.000020
     4  C    0.000119   0.000192  -0.000007  -0.002434   0.000238   0.000564
     5  C    0.000005  -0.000001   0.000003  -0.010048   0.002675   0.000041
     6  C    0.000000  -0.000001   0.000000   0.000114   0.000314  -0.000010
     7  H    0.000000  -0.000009   0.000000   0.000000   0.000000   0.000000
     8  H   -0.000130   0.015266   0.000206  -0.000006  -0.000001   0.000000
     9  H    0.000000   0.000000   0.000000  -0.004163   0.003745   0.000084
    10  H    0.000000   0.000000   0.000000   0.000007  -0.000001   0.000000
    11  C    0.000000   0.000000   0.000000   0.000000   0.000000   0.000000
    12  N    0.000000   0.000000   0.000000   0.000000   0.000000   0.000000
    13  N    0.002314  -0.001271   0.003006  -0.054813  -0.002513   0.002827
    14  C    0.000164  -0.000055  -0.000128   0.279205  -0.041877  -0.041281
    15  H    0.000025  -0.000002   0.000008  -0.061118  -0.004095   0.004554
    16  C   -0.042485  -0.041413  -0.037619   0.004351  -0.000026   0.000036
    17  H    0.004025  -0.002365   0.001892  -0.000134  -0.000004   0.000007
    18  C    0.361438   0.358729   0.339730  -0.000089   0.000004  -0.000040
    19  H    0.520358  -0.025176  -0.023292  -0.000094  -0.000001   0.000092
    20  H   -0.025176   0.513035  -0.026547   0.000003   0.000000   0.000001
    21  H   -0.023292  -0.026547   0.556713  -0.000001   0.000000   0.000001
    22  C   -0.000094   0.000003  -0.000001   5.380106   0.366325   0.359172
    23  H   -0.000001   0.000000   0.000000   0.366325   0.516994  -0.025737
    24  H    0.000092   0.000001   0.000001   0.359172  -0.025737   0.515987
    25  H    0.000002   0.000000   0.000000   0.351028  -0.028090  -0.022850
    26  C    0.001700  -0.000178   0.000208  -0.056768   0.003762  -0.003997
    27  H   -0.000013   0.000001   0.000002   0.000289  -0.000074   0.000011
    28  H    0.001757  -0.000044   0.000054  -0.004458   0.000018   0.005154
    29  C   -0.003244   0.003728  -0.000952   0.004978  -0.000139  -0.000058
    30  H    0.000598   0.000117   0.001633  -0.000069   0.000001  -0.000002
    31  H    0.000028  -0.000086   0.000006  -0.000057   0.000003   0.000002
             25         26         27         28         29         30
     1  C    0.000000   0.000000   0.000000   0.000000   0.000000   0.000000
     2  C    0.000000   0.000001   0.000000   0.000000   0.000000   0.000000
     3  C    0.000000  -0.000125   0.000001   0.000004   0.000077  -0.000001
     4  C    0.000031   0.004896  -0.000084  -0.000109   0.004692  -0.000060
     5  C    0.000044   0.000153   0.000008  -0.000009  -0.000141   0.000000
     6  C   -0.000002  -0.000003   0.000000   0.000000   0.000002   0.000000
     7  H    0.000000   0.000000   0.000000   0.000000   0.000000   0.000000
     8  H    0.000000  -0.000010   0.000000   0.000000   0.000093  -0.000001
     9  H    0.000419   0.000057   0.000003   0.000002  -0.000022   0.000000
    10  H    0.000000   0.000000   0.000000   0.000000   0.000000   0.000000
    11  C    0.000000   0.000000   0.000000   0.000000   0.000000   0.000000
    12  N    0.000000   0.000000   0.000000   0.000000   0.000000   0.000000
    13  N    0.002748  -0.068150   0.002622   0.001136  -0.052055   0.002302
    14  C   -0.038596   0.271895  -0.037129  -0.046433  -0.091400   0.004294
    15  H    0.001657  -0.045928  -0.001173   0.004219  -0.001793  -0.000114
    16  C   -0.000087  -0.091712   0.004036   0.000526   0.274300  -0.039090
    17  H    0.000003   0.004688  -0.000038   0.000013  -0.035643   0.001324
    18  C   -0.000001   0.000648  -0.000099   0.000893  -0.071920  -0.002374
    19  H    0.000002   0.001700  -0.000013   0.001757  -0.003244   0.000598
    20  H    0.000000  -0.000178   0.000001  -0.000044   0.003728   0.000117
    21  H    0.000000   0.000208   0.000002   0.000054  -0.000952   0.001633
    22  C    0.351028  -0.056768   0.000289  -0.004458   0.004978  -0.000069
    23  H   -0.028090   0.003762  -0.000074   0.000018  -0.000139   0.000001
    24  H   -0.022850  -0.003997   0.000011   0.005154  -0.000058  -0.000002
    25  H    0.545272  -0.002629   0.001497   0.000088  -0.000026   0.000000
    26  C   -0.002629   5.417875   0.375370   0.370545   0.266092  -0.031793
    27  H    0.001497   0.375370   0.519031  -0.025990  -0.032812   0.000308
    28  H    0.000088   0.370545  -0.025990   0.527945  -0.043535  -0.003921
    29  C   -0.000026   0.266092  -0.032812  -0.043535   5.421324   0.380058
    30  H    0.000000  -0.031793   0.000308  -0.003921   0.380058   0.511217
    31  H   -0.000002  -0.043142  -0.004032   0.003668   0.370440  -0.027508
             31
     1  C    0.000000
     2  C    0.000000
     3  C    0.000012
     4  C   -0.000152
     5  C   -0.000003
     6  C    0.000000
     7  H    0.000000
     8  H   -0.000001
     9  H   -0.000001
    10  H    0.000000
    11  C    0.000000
    12  N    0.000000
    13  N    0.001236
    14  C    0.000849
    15  H    0.002010
    16  C   -0.039441
    17  H   -0.004395
    18  C    0.003525
    19  H    0.000028
    20  H   -0.000086
    21  H    0.000006
    22  C   -0.000057
    23  H    0.000003
    24  H    0.000002
    25  H   -0.000002
    26  C   -0.043142
    27  H   -0.004032
    28  H    0.003668
    29  C    0.370440
    30  H   -0.027508
    31  H    0.531763
 Mulliken atomic charges:
              1
     1  C   -0.007427
     2  C   -0.163166
     3  C   -0.194297
     4  C    0.311082
     5  C   -0.201408
     6  C   -0.163102
     7  H    0.202408
     8  H    0.207038
     9  H    0.197386
    10  H    0.202576
    11  C    0.280642
    12  N   -0.482996
    13  N   -0.640852
    14  C   -0.042551
    15  H    0.191822
    16  C   -0.058793
    17  H    0.206038
    18  C   -0.541417
    19  H    0.201620
    20  H    0.208582
    21  H    0.184944
    22  C   -0.551188
    23  H    0.208509
    24  H    0.205461
    25  H    0.189494
    26  C   -0.373456
    27  H    0.198263
    28  H    0.208477
    29  C   -0.392045
    30  H    0.203079
    31  H    0.205277
 Sum of Mulliken atomic charges =   0.00000
 Mulliken charges with hydrogens summed into heavy atoms:
              1
     1  C   -0.007427
     2  C    0.039242
     3  C    0.012741
     4  C    0.311082
     5  C   -0.004022
     6  C    0.039474
    11  C    0.280642
    12  N   -0.482996
    13  N   -0.640852
    14  C    0.149272
    16  C    0.147245
    18  C    0.053728
    22  C    0.052276
    26  C    0.033283
    29  C    0.016311
 Sum of Mulliken charges with hydrogens summed into heavy atoms =   0.00000
 Electronic spatial extent (au):  <R**2>=           3848.0385
 Charge=              0.0000 electrons
 Dipole moment (field-independent basis, Debye):
    X=              6.6384    Y=              0.1031    Z=             -0.5022  Tot=              6.6582
 Quadrupole moment (field-independent basis, Debye-Ang):
   XX=           -117.2608   YY=            -81.8415   ZZ=            -92.1024
   XY=             -0.1406   XZ=             -2.3929   YZ=             -1.6773
 Traceless Quadrupole moment (field-independent basis, Debye-Ang):
   XX=            -20.1926   YY=             15.2268   ZZ=              4.9658
   XY=             -0.1406   XZ=             -2.3929   YZ=             -1.6773
 Octapole moment (field-independent basis, Debye-Ang**2):
  XXX=            245.7589  YYY=              0.5657  ZZZ=             -0.8632  XYY=             -2.1723
  XXY=              1.9648  XXZ=              4.5386  XZZ=              9.0851  YZZ=             -0.0013
  YYZ=             -0.6678  XYZ=              4.0141
 Hexadecapole moment (field-independent basis, Debye-Ang**3):
 XXXX=          -5364.7514 YYYY=           -935.1668 ZZZZ=           -262.8856 XXXY=            -12.9439
 XXXZ=            -53.0155 YYYX=              2.9198 YYYZ=            -10.6304 ZZZX=              0.1173
 ZZZY=              1.6284 XXYY=           -781.8946 XXZZ=           -715.8315 YYZZ=           -209.5843
 XXYZ=            -11.8875 YYXZ=             -4.0121 ZZXY=              0.9768
 N-N= 9.531840474130D+02 E-N=-3.322106849496D+03  KE= 6.066737631198D+02
 1|1|UNPC-DESKTOP-K2VF0AK|SP|RTD-B3LYP-FC|3-21G|C13H16N2|MELIH|17-Dec-2
 024|0||# td b3lyp/3-21g geom=connectivity||Title Card Required||0,1|C,
 0,-2.944533,-0.03717,-0.051577|C,0,-2.229182,-1.226103,-0.015226|C,0,-
 0.850009,-1.197991,0.051503|C,0,-0.163512,0.006458,0.08157|C,0,-0.8892
 35,1.19229,0.044527|C,0,-2.266573,1.175879,-0.020699|H,0,-2.752279,-2.
 160494,-0.038189|H,0,-0.285399,-2.105841,0.083616|H,0,-0.371099,2.1298
 36,0.066357|H,0,-2.820149,2.092507,-0.048852|C,0,-4.371107,-0.058748,-
 0.119969|N,0,-5.510267,-0.075658,-0.174552|N,0,1.258841,-0.001536,0.14
 3955|C,0,1.97296108,1.29694285,0.1535087|H,0,1.66120485,1.92366533,-0.
 68082618|C,0,1.9840279,-1.02073126,-0.66940103|H,0,1.40106382,-1.29023
 395,-1.54298208|C,0,2.24399003,-2.26773205,0.17874364|H,0,2.84814543,-
 2.00487216,1.03839303|H,0,1.30862254,-2.68482852,0.53356998|H,0,2.7601
 561,-3.02628437,-0.40035788|C,0,1.7483503,2.04033632,1.46963639|H,0,0.
 70426319,2.30140155,1.59552646|H,0,2.04708265,1.40464429,2.29382716|H,
 0,2.33245487,2.95408747,1.49339695|C,0,3.42566783,0.84645249,-0.061587
 62|H,0,4.05784286,1.65265708,-0.40960959|H,0,3.81935343,0.46511424,0.8
 727039|C,0,3.28866975,-0.29482752,-1.08878198|H,0,4.1392778,-0.9629313
 2,-1.09106522|H,0,3.17735055,0.1248754,-2.08209184||Version=IA32W-G09R
 evA.02|State=1-A|HF=-611.1504477|RMSD=7.973e-009|PG=C01 [X(C13H16N2)]|
 |@


 NO MATTER HOW THIN YOU SLICE IT, IT'S STILL BALONEY

                                   -- ALFRED E. SMITH
 Job cpu time:  0 days  0 hours  6 minutes 10.0 seconds.
 File lengths (MBytes):  RWF=     64 Int=      0 D2E=      0 Chk=      5 Scr=      1
 Normal termination of Gaussian 09 at Tue Dec 17 22:05:06 2024.
