 Entering Link 1 = C:\G09W\l1.exe PID=     15836.
  
 Copyright (c) 1988,1990,1992,1993,1995,1998,2003,2009, Gaussian, Inc.
                  All Rights Reserved.
  
 This is part of the Gaussian(R) 09 program.  It is based on
 the Gaussian(R) 03 system (copyright 2003, Gaussian, Inc.),
 the Gaussian(R) 98 system (copyright 1998, Gaussian, Inc.),
 the Gaussian(R) 94 system (copyright 1995, Gaussian, Inc.),
 the Gaussian 92(TM) system (copyright 1992, Gaussian, Inc.),
 the Gaussian 90(TM) system (copyright 1990, Gaussian, Inc.),
 the Gaussian 88(TM) system (copyright 1988, Gaussian, Inc.),
 the Gaussian 86(TM) system (copyright 1986, Carnegie Mellon
 University), and the Gaussian 82(TM) system (copyright 1983,
 Carnegie Mellon University). Gaussian is a federally registered
 trademark of Gaussian, Inc.
  
 This software contains proprietary and confidential information,
 including trade secrets, belonging to Gaussian, Inc.
  
 This software is provided under written license and may be
 used, copied, transmitted, or stored only in accord with that
 written license.
  
 The following legend is applicable only to US Government
 contracts under FAR:
  
                    RESTRICTED RIGHTS LEGEND
  
 Use, reproduction and disclosure by the US Government is
 subject to restrictions as set forth in subparagraphs (a)
 and (c) of the Commercial Computer Software - Restricted
 Rights clause in FAR 52.227-19.
  
 Gaussian, Inc.
 340 Quinnipiac St., Bldg. 40, Wallingford CT 06492
  
  
 ---------------------------------------------------------------
 Warning -- This program may not be used in any manner that
 competes with the business of Gaussian, Inc. or will provide
 assistance to any competitor of Gaussian, Inc.  The licensee
 of this program is prohibited from giving any competitor of
 Gaussian, Inc. access to this program.  By using this program,
 the user acknowledges that Gaussian, Inc. is engaged in the
 business of creating and licensing software in the field of
 computational chemistry and represents and warrants to the
 licensee that it is not a competitor of Gaussian, Inc. and that
 it will not use this program in any manner prohibited above.
 ---------------------------------------------------------------
  

 Cite this work as:
 Gaussian 09, Revision A.02,
 M. J. Frisch, G. W. Trucks, H. B. Schlegel, G. E. Scuseria, 
 M. A. Robb, J. R. Cheeseman, G. Scalmani, V. Barone, B. Mennucci, 
 G. A. Petersson, H. Nakatsuji, M. Caricato, X. Li, H. P. Hratchian, 
 A. F. Izmaylov, J. Bloino, G. Zheng, J. L. Sonnenberg, M. Hada, 
 M. Ehara, K. Toyota, R. Fukuda, J. Hasegawa, M. Ishida, T. Nakajima, 
 Y. Honda, O. Kitao, H. Nakai, T. Vreven, J. A. Montgomery, Jr., 
 J. E. Peralta, F. Ogliaro, M. Bearpark, J. J. Heyd, E. Brothers, 
 K. N. Kudin, V. N. Staroverov, R. Kobayashi, J. Normand, 
 K. Raghavachari, A. Rendell, J. C. Burant, S. S. Iyengar, J. Tomasi, 
 M. Cossi, N. Rega, J. M. Millam, M. Klene, J. E. Knox, J. B. Cross, 
 V. Bakken, C. Adamo, J. Jaramillo, R. Gomperts, R. E. Stratmann, 
 O. Yazyev, A. J. Austin, R. Cammi, C. Pomelli, J. W. Ochterski, 
 R. L. Martin, K. Morokuma, V. G. Zakrzewski, G. A. Voth, 
 P. Salvador, J. J. Dannenberg, S. Dapprich, A. D. Daniels, 
 O. Farkas, J. B. Foresman, J. V. Ortiz, J. Cioslowski, 
 and D. J. Fox, Gaussian, Inc., Wallingford CT, 2009.
 
 ******************************************
 Gaussian 09:  IA32W-G09RevA.02 11-Jun-2009
                17-Dec-2024 
 ******************************************
 %chk=C:\G09W\Hw5\energy40.chk
 ----------------------------------
 # td b3lyp/3-21g geom=connectivity
 ----------------------------------
 1/38=1,57=2/1;
 2/12=2,17=6,18=5,40=1/2;
 3/5=5,11=2,16=1,25=1,30=1,74=-5/1,2,8,3;
 4//1;
 5/5=2,38=5/2;
 8/6=1,10=1/1;
 9/42=1/14;
 6/7=2,8=2,9=2,10=2/1;
 99/5=1,9=1/99;
 -------------------
 Title Card Required
 -------------------
 Symbolic Z-matrix:
 Charge =  0 Multiplicity = 1
 C                    -2.94537  -0.02852  -0.05816 
 C                    -2.29081   0.73667   0.89716 
 C                    -0.91065   0.74252   0.94712 
 C                    -0.16313  -0.00957   0.05356 
 C                    -0.82823  -0.77313  -0.89978 
 C                    -2.20586  -0.78524  -0.95958 
 H                    -2.86126   1.32022   1.59092 
 H                    -0.39223   1.3298    1.67537 
 H                    -0.26263  -1.35944  -1.59568 
 H                    -2.71257  -1.37523  -1.6962 
 C                    -4.37253  -0.03881  -0.11603 
 N                    -5.51215  -0.04721  -0.16251 
 N                     1.25792   0.01485   0.13773 
 C                     1.98255   1.15303  -0.4751 
 H                     1.68954   1.29218  -1.51475 
 C                     1.98767  -1.2713   -0.06097 
 H                     1.41669  -1.93354  -0.70209 
 C                     2.22352  -1.94499   1.29272 
 H                     2.81586  -1.29534   1.92532 
 H                     1.27911  -2.13625   1.78899 
 H                     2.74267  -2.88943   1.16731 
 C                     1.74287   2.44442   0.30602 
 H                     0.69909   2.73303   0.26939 
 H                     2.02295   2.29247   1.34096 
 H                     2.33408   3.25374  -0.10889 
 C                     3.43475   0.65582  -0.41637 
 H                     4.07914   1.18973  -1.10225 
 H                     3.8101    0.77967   0.59214 
 C                     3.30491  -0.84187  -0.75767 
 H                     4.14986  -1.42542  -0.41793 
 H                     3.21315  -0.96088  -1.83127 
 
                          Input orientation:                          
 ---------------------------------------------------------------------
 Center     Atomic      Atomic             Coordinates (Angstroms)
 Number     Number       Type             X           Y           Z
 ---------------------------------------------------------------------
      1          6           0       -2.945367   -0.028518   -0.058161
      2          6           0       -2.290807    0.736672    0.897162
      3          6           0       -0.910650    0.742517    0.947123
      4          6           0       -0.163126   -0.009573    0.053563
      5          6           0       -0.828227   -0.773128   -0.899783
      6          6           0       -2.205856   -0.785241   -0.959583
      7          1           0       -2.861257    1.320219    1.590924
      8          1           0       -0.392229    1.329803    1.675367
      9          1           0       -0.262634   -1.359445   -1.595681
     10          1           0       -2.712566   -1.375234   -1.696197
     11          6           0       -4.372533   -0.038812   -0.116034
     12          7           0       -5.512147   -0.047214   -0.162514
     13          7           0        1.257917    0.014849    0.137729
     14          6           0        1.982546    1.153030   -0.475102
     15          1           0        1.689536    1.292180   -1.514751
     16          6           0        1.987671   -1.271301   -0.060966
     17          1           0        1.416690   -1.933540   -0.702092
     18          6           0        2.223524   -1.944994    1.292715
     19          1           0        2.815864   -1.295342    1.925316
     20          1           0        1.279110   -2.136250    1.788991
     21          1           0        2.742668   -2.889425    1.167308
     22          6           0        1.742868    2.444417    0.306020
     23          1           0        0.699085    2.733030    0.269392
     24          1           0        2.022948    2.292474    1.340962
     25          1           0        2.334079    3.253738   -0.108889
     26          6           0        3.434751    0.655818   -0.416370
     27          1           0        4.079142    1.189733   -1.102246
     28          1           0        3.810099    0.779665    0.592135
     29          6           0        3.304905   -0.841872   -0.757665
     30          1           0        4.149862   -1.425418   -0.417926
     31          1           0        3.213150   -0.960884   -1.831270
 ---------------------------------------------------------------------
                    Distance matrix (angstroms):
                    1          2          3          4          5
     1  C    0.000000
     2  C    1.388023   0.000000
     3  C    2.396908   1.381073   0.000000
     4  C    2.784548   2.407398   1.386680   0.000000
     5  C    2.396884   2.765438   2.390614   1.390771   0.000000
     6  C    1.389988   2.402278   2.765344   2.408500   1.378979
     7  H    2.132052   1.071095   2.133796   3.378125   3.836526
     8  H    3.371746   2.135885   1.069582   2.115813   3.353180
     9  H    3.366361   3.836855   3.362145   2.133556   1.071418
    10  H    2.133307   3.370985   3.836523   3.380286   2.132496
    11  C    1.428376   2.441624   3.704783   4.212924   3.703456
    12  N    2.568968   3.480578   4.798827   5.353516   4.796834
    13  N    4.208070   3.700163   2.426376   1.423743   2.459540
    14  C    5.084705   4.507550   3.249897   2.497006   3.433786
    15  H    5.034702   4.687114   3.622695   2.754365   3.314033
    16  C    5.087178   4.822379   3.670418   2.496198   2.980113
    17  H    4.803259   4.840783   3.911227   2.601631   2.534816
    18  C    5.675842   5.265641   4.143090   3.313224   3.936179
    19  H    6.223408   5.591446   4.358513   3.745803   4.640398
    20  H    5.069587   4.668334   3.713635   3.100727   3.678108
    21  H    6.483850   6.209463   5.156182   4.240002   4.637119
    22  C    5.312964   4.419997   3.216929   3.117469   4.291514
    23  H    4.584264   3.649519   2.648152   2.883030   3.999100
    24  H    5.659391   4.607164   3.341179   3.425746   4.748479
    25  H    6.216778   5.360721   4.236704   4.112374   5.180864
    26  C    6.426705   5.874854   4.555122   3.688943   4.522008
    27  H    7.205413   6.691722   5.412757   4.557529   5.289243
    28  H    6.834645   6.108677   4.734223   4.086499   5.113811
    29  C    6.341668   6.045018   4.815339   3.657602   4.136146
    30  H    7.240375   6.919993   5.672044   4.563856   5.043713
    31  H    6.476153   6.373349   5.256117   3.982063   4.151584
                    6          7          8          9         10
     6  C    0.000000
     7  H    3.371586   0.000000
     8  H    3.834790   2.470489   0.000000
     9  H    2.123780   4.907941   4.236580   0.000000
    10  H    1.071189   4.253555   4.905979   2.452043   0.000000
    11  C    2.441971   2.654172   4.574390   4.563408   2.653004
    12  N    3.480167   3.460005   5.611376   5.597615   3.457379
    13  N    3.720479   4.558876   2.610827   2.684301   4.589155
    14  C    4.640509   5.268666   3.208633   3.550924   5.470582
    15  H    4.449490   5.509602   3.809464   3.293726   5.150390
    16  C    4.316183   5.740802   3.929952   2.725251   4.977651
    17  H    3.808902   5.843431   4.424241   1.987012   4.283772
    18  C    5.102674   6.050251   4.208668   3.855734   5.798552
    19  H    5.813821   6.259606   4.152797   4.677466   6.609483
    20  H    4.639491   5.397133   3.849650   3.799528   5.353424
    21  H    5.782659   7.021718   5.280870   4.359678   6.344447
    22  C    5.255936   4.910475   2.770581   4.701901   6.200766
    23  H    4.725176   4.051977   2.266447   4.599103   5.690407
    24  H    5.713810   4.986303   2.621382   5.213854   6.715765
    25  H    6.135800   5.798221   3.783894   5.498630   7.029620
    26  C    5.847066   6.641564   4.413094   4.372953   6.599442
    27  H    6.589543   7.445759   5.265731   5.058934   7.284170
    28  H    6.406908   6.767330   4.374427   5.094064   7.240525
    29  C    5.514750   6.943490   4.929972   3.701012   6.113532
    30  H    6.410801   7.792931   5.709966   4.567448   6.980645
    31  H    5.491476   7.335752   5.526528   3.506484   5.941720
                   11         12         13         14         15
    11  C    0.000000
    12  N    1.140592   0.000000
    13  N    5.636421   6.777003   0.000000
    14  C    6.475836   7.596625   1.481926   0.000000
    15  H    6.362125   7.448943   2.132735   1.089077   0.000000
    16  C    6.478755   7.599735   1.492046   2.459454   2.962062
    17  H    6.119523   7.201260   2.127611   3.146209   3.337683
    18  C    7.009000   8.096905   2.471310   3.575052   4.318137
    19  H    7.577535   8.675980   2.709108   3.528590   4.449488
    20  H    6.322139   7.368420   2.711889   4.054664   4.778838
    21  H    7.771683   8.831113   3.420428   4.429079   5.078223
    22  C    6.613826   7.685245   2.483204   1.528161   2.155389
    23  H    5.792493   6.818776   2.778153   2.167474   2.498041
    24  H    6.961316   8.031951   2.687121   2.144307   3.044150
    25  H    7.471251   8.512486   3.421892   2.161171   2.497918
    26  C    7.843877   8.978067   2.335910   1.536089   2.158048
    27  H    8.597253   9.716273   3.298060   2.188692   2.427112
    28  H    8.253901   9.389222   2.702788   2.149034   3.032891
    29  C    7.745944   8.872772   2.392877   2.410002   2.781506
    30  H    8.639736   9.763150   3.278181   3.368816   3.826430
    31  H    7.831656   8.930305   2.941419   2.796821   2.738226
                   16         17         18         19         20
    16  C    0.000000
    17  H    1.084261   0.000000
    18  C    1.530340   2.151829   0.000000
    19  H    2.152161   3.044381   1.083097   0.000000
    20  H    2.161605   2.503101   1.083876   1.757078   0.000000
    21  H    2.167257   2.483262   1.084983   1.766645   1.759478
    22  C    3.741813   4.504352   4.524547   4.214171   4.837022
    23  H    4.219509   4.820333   5.025437   4.842584   5.133761
    24  H    3.829770   4.732950   4.242487   3.720566   4.513050
    25  H    4.538532   5.301070   5.385493   5.006419   5.810928
    26  C    2.436009   3.295297   3.339501   3.110231   4.160054
    27  H    3.393406   4.123543   4.359549   4.115532   5.221264
    28  H    2.820327   3.842514   3.229830   2.659235   4.042392
    29  C    1.550775   2.181784   2.567162   2.764631   3.502102
    30  H    2.196871   2.794489   2.628123   2.699491   3.690119
    31  H    2.175347   2.334175   3.421566   3.792313   4.269460
                   21         22         23         24         25
    21  H    0.000000
    22  C    5.494660   0.000000
    23  H    6.049338   1.083569   0.000000
    24  H    5.234523   1.082883   1.759251   0.000000
    25  H    6.287613   1.084749   1.757111   1.767173   0.000000
    26  C    3.944079   2.565814   3.502706   2.785686   2.838170
    27  H    4.855571   3.002602   3.960801   3.378348   2.879604
    28  H    3.864253   2.669589   3.687575   2.458301   2.964980
    29  C    2.866026   3.790921   4.541483   3.983939   4.258807
    30  H    2.576136   4.614471   5.447289   4.630353   5.028625
    31  H    3.596122   4.280866   4.937439   4.697231   4.637068
                   26         27         28         29         30
    26  C    0.000000
    27  H    1.082003   0.000000
    28  H    1.083193   1.763935   0.000000
    29  C    1.541563   2.201272   2.169462   0.000000
    30  H    2.200666   2.704128   2.449092   1.081620   0.000000
    31  H    2.159809   2.430344   3.042820   1.084071   1.758056
                   31
    31  H    0.000000
 Stoichiometry    C13H16N2
 Framework group  C1[X(C13H16N2)]
 Deg. of freedom    87
 Full point group                 C1      NOp   1
 Largest Abelian subgroup         C1      NOp   1
 Largest concise Abelian subgroup C1      NOp   1
                         Standard orientation:                         
 ---------------------------------------------------------------------
 Center     Atomic      Atomic             Coordinates (Angstroms)
 Number     Number       Type             X           Y           Z
 ---------------------------------------------------------------------
      1          6           0       -2.945253   -0.057320   -0.043622
      2          6           0       -2.292920    0.807999    0.823728
      3          6           0       -0.912715    0.826357    0.869105
      4          6           0       -0.162930   -0.012024    0.058044
      5          6           0       -0.825808   -0.875562   -0.807484
      6          6           0       -2.203471   -0.901180   -0.861990
      7          1           0       -2.865124    1.458596    1.453450
      8          1           0       -0.396015    1.490051    1.529815
      9          1           0       -0.258451   -1.529166   -1.439026
     10          1           0       -2.708463   -1.568389   -1.530766
     11          6           0       -4.372459   -0.081187   -0.096271
     12          7           0       -5.512104   -0.100454   -0.138560
     13          7           0        1.258130    0.028639    0.135363
     14          6           0        1.975180    1.099466   -0.596262
     15          1           0        1.679225    1.126399   -1.644008
     16          6           0        1.994550   -1.267448    0.071764
     17          1           0        1.425887   -1.996742   -0.494253
     18          6           0        2.236958   -1.793030    1.488430
     19          1           0        2.827031   -1.077042    2.047243
     20          1           0        1.294657   -1.935727    2.004660
     21          1           0        2.761040   -2.742680    1.462155
     22          6           0        1.730021    2.464904    0.044638
     23          1           0        0.684587    2.742529   -0.019500
     24          1           0        2.013107    2.424684    1.089091
     25          1           0        2.315885    3.228936   -0.455060
     26          6           0        3.430226    0.618899   -0.489187
     27          1           0        4.070221    1.080710   -1.229369
     28          1           0        3.807001    0.850627    0.499574
     29          6           0        3.307930   -0.907138   -0.669934
     30          1           0        4.156805   -1.447048   -0.272681
     31          1           0        3.214579   -1.139447   -1.724699
 ---------------------------------------------------------------------
 Rotational constants (GHZ):      1.4285051      0.3176689      0.2904737
 Standard basis: 3-21G (6D, 7F)
 There are   167 symmetry adapted basis functions of A   symmetry.
 Integral buffers will be    262144 words long.
 Raffenetti 2 integral format.
 Two-electron integral symmetry is turned on.
   167 basis functions,   273 primitive gaussians,   167 cartesian basis functions
    54 alpha electrons       54 beta electrons
       nuclear repulsion energy       950.8685485235 Hartrees.
 NAtoms=   31 NActive=   31 NUniq=   31 SFac= 7.50D-01 NAtFMM=   80 NAOKFM=F Big=F
 One-electron integrals computed using PRISM.
 NBasis=   167 RedAO= T  NBF=   167
 NBsUse=   167 1.00D-06 NBFU=   167
 Harris functional with IExCor=  402 diagonalized for initial guess.
 ExpMin= 1.83D-01 ExpMax= 2.43D+02 ExpMxC= 2.43D+02 IAcc=1 IRadAn=         1 AccDes= 0.00D+00
 HarFok:  IExCor=  402 AccDes= 0.00D+00 IRadAn=         1 IDoV= 1
 ScaDFX=  1.000000  1.000000  1.000000  1.000000
 FoFCou: FMM=F IPFlag=           0 FMFlag=      100000 FMFlg1=           0
         NFxFlg=           0 DoJE=T BraDBF=F KetDBF=T FulRan=T
         Omega=  0.000000  0.000000  1.000000  0.000000  0.000000 ICntrl=     500 IOpCl=  0
         NMat0=    1 NMatS0=    1 NMatT0=    0 NMatD0=    1 NMtDS0=    0 NMtDT0=    0
         I1Cent=           4 NGrid=           0.
 Petite list used in FoFCou.
 Initial guess orbital symmetries:
       Occupied  (A) (A) (A) (A) (A) (A) (A) (A) (A) (A) (A) (A)
                 (A) (A) (A) (A) (A) (A) (A) (A) (A) (A) (A) (A)
                 (A) (A) (A) (A) (A) (A) (A) (A) (A) (A) (A) (A)
                 (A) (A) (A) (A) (A) (A) (A) (A) (A) (A) (A) (A)
                 (A) (A) (A) (A) (A) (A)
       Virtual   (A) (A) (A) (A) (A) (A) (A) (A) (A) (A) (A) (A)
                 (A) (A) (A) (A) (A) (A) (A) (A) (A) (A) (A) (A)
                 (A) (A) (A) (A) (A) (A) (A) (A) (A) (A) (A) (A)
                 (A) (A) (A) (A) (A) (A) (A) (A) (A) (A) (A) (A)
                 (A) (A) (A) (A) (A) (A) (A) (A) (A) (A) (A) (A)
                 (A) (A) (A) (A) (A) (A) (A) (A) (A) (A) (A) (A)
                 (A) (A) (A) (A) (A) (A) (A) (A) (A) (A) (A) (A)
                 (A) (A) (A) (A) (A) (A) (A) (A) (A) (A) (A) (A)
                 (A) (A) (A) (A) (A) (A) (A) (A) (A) (A) (A) (A)
                 (A) (A) (A) (A) (A)
 The electronic state of the initial guess is 1-A.
 Requested convergence on RMS density matrix=1.00D-08 within 128 cycles.
 Requested convergence on MAX density matrix=1.00D-06.
 Requested convergence on             energy=1.00D-06.
 No special actions if energy rises.
 Integral accuracy reduced to 1.0D-05 until final iterations.
 Initial convergence to 1.0D-05 achieved.  Increase integral accuracy.
 SCF Done:  E(RB3LYP) =  -611.147622925     A.U. after   16 cycles
             Convg  =    0.4602D-08             -V/T =  2.0074
 ExpMin= 1.83D-01 ExpMax= 2.43D+02 ExpMxC= 2.43D+02 IAcc=1 IRadAn=         1 AccDes= 0.00D+00
 HarFok:  IExCor=  205 AccDes= 0.00D+00 IRadAn=         1 IDoV=-2
 ScaDFX=  1.000000  1.000000  1.000000  1.000000
 Range of M.O.s used for correlation:    16   167
 NBasis=   167 NAE=    54 NBE=    54 NFC=    15 NFV=     0
 NROrb=    152 NOA=    39 NOB=    39 NVA=   113 NVB=   113
 Would need an additional   268100000 words for in-memory AO integral storage.
 Orbital symmetries:
       Occupied  (A) (A) (A) (A) (A) (A) (A) (A) (A) (A) (A) (A)
                 (A) (A) (A) (A) (A) (A) (A) (A) (A) (A) (A) (A)
                 (A) (A) (A) (A) (A) (A) (A) (A) (A) (A) (A) (A)
                 (A) (A) (A) (A) (A) (A) (A) (A) (A) (A) (A) (A)
                 (A) (A) (A) (A) (A) (A)
       Virtual   (A) (A) (A) (A) (A) (A) (A) (A) (A) (A) (A) (A)
                 (A) (A) (A) (A) (A) (A) (A) (A) (A) (A) (A) (A)
                 (A) (A) (A) (A) (A) (A) (A) (A) (A) (A) (A) (A)
                 (A) (A) (A) (A) (A) (A) (A) (A) (A) (A) (A) (A)
                 (A) (A) (A) (A) (A) (A) (A) (A) (A) (A) (A) (A)
                 (A) (A) (A) (A) (A) (A) (A) (A) (A) (A) (A) (A)
                 (A) (A) (A) (A) (A) (A) (A) (A) (A) (A) (A) (A)
                 (A) (A) (A) (A) (A) (A) (A) (A) (A) (A) (A) (A)
                 (A) (A) (A) (A) (A) (A) (A) (A) (A) (A) (A) (A)
                 (A) (A) (A) (A) (A)
    12 initial guesses have been made.
 Convergence on wavefunction:    0.001000000000000
 Iteration     1 Dimension    12 NMult    12
 CISAX will form    12 AO SS matrices at one time.
 No map to state      3
 Iteration     2 Dimension    18 NMult    18
 Iteration     3 Dimension    24 NMult    24
 Iteration     4 Dimension    30 NMult    30
 Iteration     5 Dimension    34 NMult    34
 ***********************************************************************
 Excited states from <AA,BB:AA,BB> singles matrix:
 ***********************************************************************
 
 Ground to excited state transition electric dipole moments (Au):
       state          X           Y           Z        Dip. S.      Osc.
         1        -1.2278     -0.0279     -0.0313      1.5094      0.1475
         2        -0.0528      0.1284      0.1645      0.0463      0.0050
         3        -0.0316      0.1687      0.1733      0.0595      0.0081
 Ground to excited state transition velocity dipole moments (Au):
       state          X           Y           Z        Dip. S.      Osc.
         1         0.1479      0.0048     -0.0010      0.0219      0.0996
         2         0.0088     -0.0167     -0.0268      0.0011      0.0044
         3         0.0066     -0.0275     -0.0297      0.0017      0.0054
 Ground to excited state transition magnetic dipole moments (Au):
       state          X           Y           Z
         1         0.2465      0.0392     -0.0838
         2        -0.0511     -0.2705      0.5054
         3        -0.0389     -0.0843      0.1897
 <0|del|b> * <b|rxdel|0> + <0|del|b> * <b|delr+rdel|0>
 Rotatory Strengths (R) in cgs (10**-40 erg-esu-cm/Gauss)
       state          XX          YY          ZZ    R(velocity)
         1         0.9841     61.8103    114.3102     59.0349
 Total R(velocity) tensor for State=          1
                 1             2             3 
      1   0.984066D+00 -0.251040D+02  0.266261D+02
      2  -0.236668D+01  0.618103D+02 -0.569529D+02
      3   0.284248D+00  0.143503D+02  0.114310D+03
 R(velocity) tensor in inp. orien. for State=          1
                 1             2             3 
      1   0.770678D+00 -0.274326D+02  0.232536D+02
      2  -0.188861D+01  0.670386D+02 -0.621292D+02
      3  -0.143812D+00  0.925065D+01  0.109295D+03
         2       -20.0172    -28.8992      7.4938    -13.8076
 Total R(velocity) tensor for State=          2
                 1             2             3 
      1  -0.200172D+02  0.327259D+01 -0.864018D+01
      2  -0.835465D+00 -0.288992D+02  0.177586D+02
      3  -0.230793D+01 -0.132277D+02  0.749377D+01
 R(velocity) tensor in inp. orien. for State=          2
                 1             2             3 
      1  -0.199752D+02  0.415381D+01 -0.822698D+01
      2  -0.665594D+00 -0.289884D+02  0.139271D+02
      3  -0.253543D+01 -0.170811D+02  0.754096D+01
         3        -5.7344     -4.4550     -2.0995     -4.0963
 Total R(velocity) tensor for State=          3
                 1             2             3 
      1  -0.573436D+01 -0.196051D+00 -0.109039D+01
      2  -0.181064D+01 -0.445503D+01  0.372298D+01
      3  -0.164562D+01  0.187344D+01 -0.209948D+01
 R(velocity) tensor in inp. orien. for State=          3
                 1             2             3 
      1  -0.573764D+01 -0.790013D-01 -0.109498D+01
      2  -0.162973D+01 -0.500750D+01  0.341553D+01
      3  -0.182793D+01  0.157326D+01 -0.154374D+01
 1/2[<0|r|b>*<b|rxdel|0> + (<0|rxdel|b>*<b|r|0>)*]
 Rotatory Strengths (R) in cgs (10**-40 erg-esu-cm/Gauss)
       state          XX          YY          ZZ     R(length)     R(au)
         1       214.0028      0.7737     -1.8573     70.9730      0.1505
         2        -1.9058     24.5627    -58.7790    -12.0407     -0.0255
         3        -0.8692     10.0513    -23.2398     -4.6859     -0.0099
  1/2[<0|del|b>*<b|r|0> + (<0|r|b>*<b|del|0>)*] (Au)
       state          X           Y           Z        Dip. S.   Osc.(frdel)
         1        -0.1816     -0.0001      0.0000      0.1817      0.1211
         2        -0.0005     -0.0021     -0.0044      0.0070      0.0047
         3        -0.0002     -0.0046     -0.0051      0.0100      0.0067
 Ground to excited state transition densities written to RWF  633

 Excitation energies and oscillator strengths:
 
 Excited State   1:      Singlet-A      3.9900 eV  310.74 nm  f=0.1475  <S**2>=0.000
      53 -> 55        -0.10156
      54 -> 55         0.69498
 This state for optimization and/or second-order correction.
 Copying the excited state density for this state as the 1-particle RhoCI density.
 
 Excited State   2:      Singlet-A      4.3941 eV  282.16 nm  f=0.0050  <S**2>=0.000
      52 -> 55        -0.11706
      54 -> 56         0.69578
 
 Excited State   3:      Singlet-A      5.5883 eV  221.87 nm  f=0.0081  <S**2>=0.000
      52 -> 55         0.54083
      53 -> 56        -0.44728
 SavETr:  write IOETrn=   770 NScale= 10 NData=  16 NLR=1 LETran=      62.

 **********************************************************************

            Population analysis using the SCF density.

 **********************************************************************

 Orbital symmetries:
       Occupied  (A) (A) (A) (A) (A) (A) (A) (A) (A) (A) (A) (A)
                 (A) (A) (A) (A) (A) (A) (A) (A) (A) (A) (A) (A)
                 (A) (A) (A) (A) (A) (A) (A) (A) (A) (A) (A) (A)
                 (A) (A) (A) (A) (A) (A) (A) (A) (A) (A) (A) (A)
                 (A) (A) (A) (A) (A) (A)
       Virtual   (A) (A) (A) (A) (A) (A) (A) (A) (A) (A) (A) (A)
                 (A) (A) (A) (A) (A) (A) (A) (A) (A) (A) (A) (A)
                 (A) (A) (A) (A) (A) (A) (A) (A) (A) (A) (A) (A)
                 (A) (A) (A) (A) (A) (A) (A) (A) (A) (A) (A) (A)
                 (A) (A) (A) (A) (A) (A) (A) (A) (A) (A) (A) (A)
                 (A) (A) (A) (A) (A) (A) (A) (A) (A) (A) (A) (A)
                 (A) (A) (A) (A) (A) (A) (A) (A) (A) (A) (A) (A)
                 (A) (A) (A) (A) (A) (A) (A) (A) (A) (A) (A) (A)
                 (A) (A) (A) (A) (A) (A) (A) (A) (A) (A) (A) (A)
                 (A) (A) (A) (A) (A)
 The electronic state is 1-A.
 Alpha  occ. eigenvalues --  -14.25270 -14.24289 -10.17561 -10.16834 -10.16112
 Alpha  occ. eigenvalues --  -10.15962 -10.15346 -10.14812 -10.14713 -10.13875
 Alpha  occ. eigenvalues --  -10.13540 -10.12493 -10.12373 -10.11118 -10.10620
 Alpha  occ. eigenvalues --   -0.95279  -0.93067  -0.88395  -0.81204  -0.78671
 Alpha  occ. eigenvalues --   -0.77236  -0.75567  -0.71713  -0.65375  -0.65040
 Alpha  occ. eigenvalues --   -0.63871  -0.58753  -0.57560  -0.56957  -0.53139
 Alpha  occ. eigenvalues --   -0.49800  -0.47915  -0.47104  -0.45495  -0.44923
 Alpha  occ. eigenvalues --   -0.44127  -0.43403  -0.41554  -0.40747  -0.40178
 Alpha  occ. eigenvalues --   -0.39057  -0.38268  -0.37460  -0.37255  -0.36263
 Alpha  occ. eigenvalues --   -0.34456  -0.33979  -0.33851  -0.33589  -0.33306
 Alpha  occ. eigenvalues --   -0.33168  -0.27335  -0.26807  -0.20554
 Alpha virt. eigenvalues --   -0.03443  -0.01222   0.05777   0.08985   0.10041
 Alpha virt. eigenvalues --    0.10662   0.11955   0.13241   0.14231   0.15545
 Alpha virt. eigenvalues --    0.15684   0.16744   0.17622   0.18048   0.18922
 Alpha virt. eigenvalues --    0.19334   0.19647   0.20371   0.21031   0.21544
 Alpha virt. eigenvalues --    0.22462   0.23136   0.23480   0.24368   0.25127
 Alpha virt. eigenvalues --    0.26533   0.28019   0.29848   0.31052   0.31976
 Alpha virt. eigenvalues --    0.33751   0.36338   0.38548   0.39802   0.50797
 Alpha virt. eigenvalues --    0.54334   0.59883   0.64256   0.66221   0.66444
 Alpha virt. eigenvalues --    0.67593   0.68985   0.70177   0.70735   0.70955
 Alpha virt. eigenvalues --    0.72797   0.73086   0.74176   0.75166   0.75307
 Alpha virt. eigenvalues --    0.76161   0.76704   0.77725   0.78465   0.79403
 Alpha virt. eigenvalues --    0.80337   0.81021   0.83166   0.85362   0.86271
 Alpha virt. eigenvalues --    0.88753   0.90517   0.93957   0.94021   0.95806
 Alpha virt. eigenvalues --    0.96165   0.97309   0.99297   0.99916   1.00716
 Alpha virt. eigenvalues --    1.01031   1.05186   1.05603   1.07497   1.07962
 Alpha virt. eigenvalues --    1.08704   1.09306   1.10536   1.12108   1.12949
 Alpha virt. eigenvalues --    1.14524   1.15111   1.16731   1.18595   1.18735
 Alpha virt. eigenvalues --    1.20740   1.21113   1.25289   1.28579   1.30737
 Alpha virt. eigenvalues --    1.34100   1.36006   1.40523   1.42846   1.49922
 Alpha virt. eigenvalues --    1.51802   1.52968   1.54699   1.56643   1.65095
 Alpha virt. eigenvalues --    1.70763   1.75856   1.78782   1.82762   1.92865
 Alpha virt. eigenvalues --    1.96710   1.98610   2.21728   2.35366   2.45227
 Alpha virt. eigenvalues --    2.50830   2.97723   3.00167
          Condensed to atoms (all electrons):
              1          2          3          4          5          6
     1  C    5.432954   0.445682  -0.084729  -0.030544  -0.085423   0.447850
     2  C    0.445682   5.163022   0.420027  -0.068797  -0.022503  -0.059504
     3  C   -0.084729   0.420027   5.225118   0.435642  -0.100958  -0.024155
     4  C   -0.030544  -0.068797   0.435642   4.997256   0.362057  -0.051652
     5  C   -0.085423  -0.022503  -0.100958   0.362057   5.317014   0.402150
     6  C    0.447850  -0.059504  -0.024155  -0.051652   0.402150   5.163723
     7  H   -0.043756   0.396332  -0.033369   0.004159  -0.000248   0.003822
     8  H    0.004538  -0.037585   0.384660  -0.045290   0.005591  -0.000401
     9  H    0.004548  -0.000148   0.003990  -0.050842   0.393171  -0.041170
    10  H   -0.042872   0.003790  -0.000203   0.003634  -0.033438   0.396095
    11  C    0.070156  -0.077496   0.004193  -0.000135   0.004571  -0.077156
    12  N   -0.117640  -0.000753  -0.000006   0.000000  -0.000006  -0.000761
    13  N   -0.000327   0.004295  -0.068569   0.315393  -0.065399   0.004836
    14  C    0.000013  -0.000013  -0.001114  -0.066777  -0.000832   0.000014
    15  H   -0.000008   0.000050  -0.000094  -0.003063   0.003759  -0.000141
    16  C   -0.000008  -0.000131   0.002352  -0.069470  -0.006960   0.000612
    17  H    0.000007   0.000014  -0.000222  -0.004682   0.001492  -0.000622
    18  C    0.000000   0.000005   0.000183  -0.000076  -0.000141   0.000003
    19  H    0.000000   0.000001  -0.000011   0.000045   0.000003   0.000000
    20  H   -0.000003   0.000001   0.000141   0.002753   0.000291  -0.000015
    21  H    0.000000   0.000000  -0.000009  -0.000014  -0.000009  -0.000001
    22  C   -0.000002  -0.000093  -0.003081  -0.004264  -0.000415   0.000013
    23  H   -0.000013   0.000102   0.002947   0.002100  -0.000057  -0.000009
    24  H    0.000000   0.000033  -0.000401   0.000073   0.000034  -0.000001
    25  H    0.000000   0.000002   0.000060   0.000123   0.000012   0.000000
    26  C    0.000000   0.000001  -0.000067   0.005249  -0.000089   0.000001
    27  H    0.000000   0.000000   0.000000  -0.000080   0.000004   0.000000
    28  H    0.000000   0.000000   0.000002  -0.000142   0.000001   0.000000
    29  C    0.000000   0.000001  -0.000088   0.004784  -0.000092  -0.000002
    30  H    0.000000   0.000000   0.000001  -0.000062   0.000000   0.000000
    31  H    0.000000   0.000000   0.000002  -0.000183   0.000047  -0.000001
              7          8          9         10         11         12
     1  C   -0.043756   0.004538   0.004548  -0.042872   0.070156  -0.117640
     2  C    0.396332  -0.037585  -0.000148   0.003790  -0.077496  -0.000753
     3  C   -0.033369   0.384660   0.003990  -0.000203   0.004193  -0.000006
     4  C    0.004159  -0.045290  -0.050842   0.003634  -0.000135   0.000000
     5  C   -0.000248   0.005591   0.393171  -0.033438   0.004571  -0.000006
     6  C    0.003822  -0.000401  -0.041170   0.396095  -0.077156  -0.000761
     7  H    0.478647  -0.004228   0.000002  -0.000052  -0.006316  -0.000106
     8  H   -0.004228   0.487383  -0.000042   0.000002  -0.000072   0.000000
     9  H    0.000002  -0.000042   0.495397  -0.004004  -0.000082   0.000000
    10  H   -0.000052   0.000002  -0.004004   0.478447  -0.006175  -0.000101
    11  C   -0.006316  -0.000072  -0.000082  -0.006175   4.955325   0.846813
    12  N   -0.000106   0.000000   0.000000  -0.000101   0.846813   6.749011
    13  N   -0.000020  -0.001891  -0.008049  -0.000019   0.000000   0.000000
    14  C    0.000001  -0.000463   0.000201   0.000000   0.000000   0.000000
    15  H    0.000000   0.000172   0.000425   0.000001   0.000000   0.000000
    16  C    0.000001  -0.000093   0.001226  -0.000001   0.000000   0.000000
    17  H    0.000000   0.000018   0.008410   0.000009   0.000000   0.000000
    18  C    0.000000  -0.000036  -0.000183   0.000000   0.000000   0.000000
    19  H    0.000000   0.000025   0.000004   0.000000   0.000000   0.000000
    20  H    0.000000   0.000020  -0.000007   0.000000   0.000000   0.000000
    21  H    0.000000   0.000001   0.000013   0.000000   0.000000   0.000000
    22  C   -0.000001   0.000019  -0.000015   0.000000   0.000000   0.000000
    23  H    0.000000   0.000023  -0.000002   0.000000   0.000000   0.000000
    24  H   -0.000001   0.002117   0.000001   0.000000   0.000000   0.000000
    25  H    0.000000   0.000109   0.000000   0.000000   0.000000   0.000000
    26  C    0.000000  -0.000036  -0.000033   0.000000   0.000000   0.000000
    27  H    0.000000   0.000001   0.000001   0.000000   0.000000   0.000000
    28  H    0.000000   0.000007   0.000001   0.000000   0.000000   0.000000
    29  C    0.000000  -0.000005  -0.000128   0.000000   0.000000   0.000000
    30  H    0.000000   0.000000   0.000001   0.000000   0.000000   0.000000
    31  H    0.000000   0.000000   0.000093   0.000000   0.000000   0.000000
             13         14         15         16         17         18
     1  C   -0.000327   0.000013  -0.000008  -0.000008   0.000007   0.000000
     2  C    0.004295  -0.000013   0.000050  -0.000131   0.000014   0.000005
     3  C   -0.068569  -0.001114  -0.000094   0.002352  -0.000222   0.000183
     4  C    0.315393  -0.066777  -0.003063  -0.069470  -0.004682  -0.000076
     5  C   -0.065399  -0.000832   0.003759  -0.006960   0.001492  -0.000141
     6  C    0.004836   0.000014  -0.000141   0.000612  -0.000622   0.000003
     7  H   -0.000020   0.000001   0.000000   0.000001   0.000000   0.000000
     8  H   -0.001891  -0.000463   0.000172  -0.000093   0.000018  -0.000036
     9  H   -0.008049   0.000201   0.000425   0.001226   0.008410  -0.000183
    10  H   -0.000019   0.000000   0.000001  -0.000001   0.000009   0.000000
    11  C    0.000000   0.000000   0.000000   0.000000   0.000000   0.000000
    12  N    0.000000   0.000000   0.000000   0.000000   0.000000   0.000000
    13  N    7.242325   0.270108  -0.047825   0.263586  -0.042496  -0.065762
    14  C    0.270108   5.296807   0.356065  -0.082615   0.001568   0.004618
    15  H   -0.047825   0.356065   0.608519   0.000663   0.000943  -0.000246
    16  C    0.263586  -0.082615   0.000663   5.302811   0.365246   0.272571
    17  H   -0.042496   0.001568   0.000943   0.365246   0.568961  -0.061510
    18  C   -0.065762   0.004618  -0.000246   0.272571  -0.061510   5.376272
    19  H    0.002445   0.000213   0.000025  -0.043319   0.004071   0.363752
    20  H   -0.001389   0.000003   0.000000  -0.037555  -0.001616   0.367174
    21  H    0.003121  -0.000119   0.000009  -0.037588   0.002039   0.337345
    22  C   -0.060705   0.277891  -0.063036   0.004873  -0.000151  -0.000078
    23  H   -0.002535  -0.038408  -0.002637  -0.000019  -0.000003   0.000003
    24  H    0.004332  -0.041569   0.004751  -0.000022   0.000009  -0.000044
    25  H    0.002774  -0.036819   0.002414  -0.000097   0.000003  -0.000001
    26  C   -0.070234   0.267465  -0.049165  -0.091171   0.004857   0.000862
    27  H    0.002618  -0.036209  -0.000950   0.003938  -0.000037  -0.000106
    28  H    0.001700  -0.046109   0.004350   0.000509   0.000024   0.000801
    29  C   -0.049441  -0.089113  -0.001932   0.273812  -0.037532  -0.075575
    30  H    0.002286   0.004251  -0.000128  -0.039023   0.001249  -0.001917
    31  H    0.001330   0.000835   0.002068  -0.038635  -0.004526   0.003555
             19         20         21         22         23         24
     1  C    0.000000  -0.000003   0.000000  -0.000002  -0.000013   0.000000
     2  C    0.000001   0.000001   0.000000  -0.000093   0.000102   0.000033
     3  C   -0.000011   0.000141  -0.000009  -0.003081   0.002947  -0.000401
     4  C    0.000045   0.002753  -0.000014  -0.004264   0.002100   0.000073
     5  C    0.000003   0.000291  -0.000009  -0.000415  -0.000057   0.000034
     6  C    0.000000  -0.000015  -0.000001   0.000013  -0.000009  -0.000001
     7  H    0.000000   0.000000   0.000000  -0.000001   0.000000  -0.000001
     8  H    0.000025   0.000020   0.000001   0.000019   0.000023   0.002117
     9  H    0.000004  -0.000007   0.000013  -0.000015  -0.000002   0.000001
    10  H    0.000000   0.000000   0.000000   0.000000   0.000000   0.000000
    11  C    0.000000   0.000000   0.000000   0.000000   0.000000   0.000000
    12  N    0.000000   0.000000   0.000000   0.000000   0.000000   0.000000
    13  N    0.002445  -0.001389   0.003121  -0.060705  -0.002535   0.004332
    14  C    0.000213   0.000003  -0.000119   0.277891  -0.038408  -0.041569
    15  H    0.000025   0.000000   0.000009  -0.063036  -0.002637   0.004751
    16  C   -0.043319  -0.037555  -0.037588   0.004873  -0.000019  -0.000022
    17  H    0.004071  -0.001616   0.002039  -0.000151  -0.000003   0.000009
    18  C    0.363752   0.367174   0.337345  -0.000078   0.000003  -0.000044
    19  H    0.528253  -0.026422  -0.024534  -0.000105  -0.000001   0.000103
    20  H   -0.026422   0.520238  -0.027077  -0.000001   0.000000   0.000002
    21  H   -0.024534  -0.027077   0.567076  -0.000001   0.000000   0.000002
    22  C   -0.000105  -0.000001  -0.000001   5.387246   0.364967   0.353686
    23  H   -0.000001   0.000000   0.000000   0.364967   0.523349  -0.028686
    24  H    0.000103   0.000002   0.000002   0.353686  -0.028686   0.531487
    25  H    0.000002   0.000000   0.000000   0.345620  -0.026991  -0.022336
    26  C    0.001692  -0.000173   0.000223  -0.055578   0.003893  -0.004860
    27  H   -0.000013   0.000001   0.000003   0.000030  -0.000079   0.000036
    28  H    0.001827  -0.000041   0.000064  -0.004854   0.000033   0.005431
    29  C   -0.003352   0.003857  -0.000588   0.005003  -0.000140  -0.000052
    30  H    0.000524   0.000088   0.001445  -0.000068   0.000001  -0.000003
    31  H    0.000031  -0.000089   0.000007  -0.000055   0.000003   0.000003
             25         26         27         28         29         30
     1  C    0.000000   0.000000   0.000000   0.000000   0.000000   0.000000
     2  C    0.000002   0.000001   0.000000   0.000000   0.000001   0.000000
     3  C    0.000060  -0.000067   0.000000   0.000002  -0.000088   0.000001
     4  C    0.000123   0.005249  -0.000080  -0.000142   0.004784  -0.000062
     5  C    0.000012  -0.000089   0.000004   0.000001  -0.000092   0.000000
     6  C    0.000000   0.000001   0.000000   0.000000  -0.000002   0.000000
     7  H    0.000000   0.000000   0.000000   0.000000   0.000000   0.000000
     8  H    0.000109  -0.000036   0.000001   0.000007  -0.000005   0.000000
     9  H    0.000000  -0.000033   0.000001   0.000001  -0.000128   0.000001
    10  H    0.000000   0.000000   0.000000   0.000000   0.000000   0.000000
    11  C    0.000000   0.000000   0.000000   0.000000   0.000000   0.000000
    12  N    0.000000   0.000000   0.000000   0.000000   0.000000   0.000000
    13  N    0.002774  -0.070234   0.002618   0.001700  -0.049441   0.002286
    14  C   -0.036819   0.267465  -0.036209  -0.046109  -0.089113   0.004251
    15  H    0.002414  -0.049165  -0.000950   0.004350  -0.001932  -0.000128
    16  C   -0.000097  -0.091171   0.003938   0.000509   0.273812  -0.039023
    17  H    0.000003   0.004857  -0.000037   0.000024  -0.037532   0.001249
    18  C   -0.000001   0.000862  -0.000106   0.000801  -0.075575  -0.001917
    19  H    0.000002   0.001692  -0.000013   0.001827  -0.003352   0.000524
    20  H    0.000000  -0.000173   0.000001  -0.000041   0.003857   0.000088
    21  H    0.000000   0.000223   0.000003   0.000064  -0.000588   0.001445
    22  C    0.345620  -0.055578   0.000030  -0.004854   0.005003  -0.000068
    23  H   -0.026991   0.003893  -0.000079   0.000033  -0.000140   0.000001
    24  H   -0.022336  -0.004860   0.000036   0.005431  -0.000052  -0.000003
    25  H    0.548155  -0.003225   0.001601   0.000198  -0.000036  -0.000001
    26  C   -0.003225   5.429467   0.373505   0.369316   0.265515  -0.032542
    27  H    0.001601   0.373505   0.524168  -0.026109  -0.033178   0.000286
    28  H    0.000198   0.369316  -0.026109   0.531159  -0.043755  -0.004031
    29  C   -0.000036   0.265515  -0.033178  -0.043755   5.428156   0.380469
    30  H   -0.000001  -0.032542   0.000286  -0.004031   0.380469   0.515272
    31  H   -0.000002  -0.043781  -0.004098   0.003733   0.368603  -0.027774
             31
     1  C    0.000000
     2  C    0.000000
     3  C    0.000002
     4  C   -0.000183
     5  C    0.000047
     6  C   -0.000001
     7  H    0.000000
     8  H    0.000000
     9  H    0.000093
    10  H    0.000000
    11  C    0.000000
    12  N    0.000000
    13  N    0.001330
    14  C    0.000835
    15  H    0.002068
    16  C   -0.038635
    17  H   -0.004526
    18  C    0.003555
    19  H    0.000031
    20  H   -0.000089
    21  H    0.000007
    22  C   -0.000055
    23  H    0.000003
    24  H    0.000003
    25  H   -0.000002
    26  C   -0.043781
    27  H   -0.004098
    28  H    0.003733
    29  C    0.368603
    30  H   -0.027774
    31  H    0.540971
 Mulliken atomic charges:
              1
     1  C   -0.000425
     2  C   -0.166334
     3  C   -0.162239
     4  C    0.262805
     5  C   -0.173629
     6  C   -0.163529
     7  H    0.205133
     8  H    0.205458
     9  H    0.197224
    10  H    0.204886
    11  C    0.286373
    12  N   -0.476450
    13  N   -0.636490
    14  C   -0.039893
    15  H    0.185011
    16  C   -0.045493
    17  H    0.194479
    18  C   -0.521473
    19  H    0.194742
    20  H    0.199817
    21  H    0.178593
    22  C   -0.546848
    23  H    0.202160
    24  H    0.195877
    25  H    0.188431
    26  C   -0.371091
    27  H    0.194668
    28  H    0.205886
    29  C   -0.395190
    30  H    0.199678
    31  H    0.197862
 Sum of Mulliken atomic charges =   0.00000
 Mulliken charges with hydrogens summed into heavy atoms:
              1
     1  C   -0.000425
     2  C    0.038798
     3  C    0.043220
     4  C    0.262805
     5  C    0.023595
     6  C    0.041357
    11  C    0.286373
    12  N   -0.476450
    13  N   -0.636490
    14  C    0.145119
    16  C    0.148986
    18  C    0.051679
    22  C    0.039619
    26  C    0.029463
    29  C    0.002351
 Sum of Mulliken charges with hydrogens summed into heavy atoms =   0.00000
 Electronic spatial extent (au):  <R**2>=           3848.4772
 Charge=              0.0000 electrons
 Dipole moment (field-independent basis, Debye):
    X=              5.4914    Y=              0.0068    Z=             -0.5204  Tot=              5.5160
 Quadrupole moment (field-independent basis, Debye-Ang):
   XX=           -116.5955   YY=            -86.0586   ZZ=            -88.0961
   XY=             -0.8837   XZ=             -2.3374   YZ=              4.0364
 Traceless Quadrupole moment (field-independent basis, Debye-Ang):
   XX=            -19.6788   YY=             10.8582   ZZ=              8.8206
   XY=             -0.8837   XZ=             -2.3374   YZ=              4.0364
 Octapole moment (field-independent basis, Debye-Ang**2):
  XXX=            230.4811  YYY=              0.0974  ZZZ=             -0.8678  XYY=              2.8091
  XXY=              4.5699  XXZ=              4.2263  XZZ=              0.5617  YZZ=              0.4230
  YYZ=             -1.1454  XYZ=             -9.2386
 Hexadecapole moment (field-independent basis, Debye-Ang**3):
 XXXX=          -5334.3853 YYYY=           -831.1183 ZZZZ=           -398.4507 XXXY=            -29.1841
 XXXZ=            -43.4007 YYYX=             -0.7218 YYYZ=              9.3880 ZZZX=             -2.8350
 ZZZY=             14.8761 XXYY=           -784.6567 XXZZ=           -719.0144 YYZZ=           -194.3957
 XXYZ=             17.6735 YYXZ=             -2.1480 ZZXY=              4.4888
 N-N= 9.508685485235D+02 E-N=-3.317693846975D+03  KE= 6.066798420556D+02
 1|1|UNPC-DESKTOP-K2VF0AK|SP|RTD-B3LYP-FC|3-21G|C13H16N2|MELIH|17-Dec-2
 024|0||# td b3lyp/3-21g geom=connectivity||Title Card Required||0,1|C,
 0,-2.94536722,-0.02851849,-0.05816123|C,0,-2.29080652,0.73667224,0.897
 16194|C,0,-0.91064992,0.74251663,0.94712294|C,0,-0.163126,-0.009573,0.
 053563|C,0,-0.82822736,-0.77312833,-0.89978306|C,0,-2.20585591,-0.7852
 4061,-0.95958349|H,0,-2.86125657,1.32021853,1.59092351|H,0,-0.39222941
 ,1.32980284,1.67536747|H,0,-0.26263443,-1.35944472,-1.59568146|H,0,-2.
 71256581,-1.37523416,-1.69619653|C,0,-4.37253337,-0.03881248,-0.116033
 99|N,0,-5.51214688,-0.04721396,-0.16251449|N,0,1.257917,0.014849,0.137
 729|C,0,1.982546,1.15303,-0.475102|H,0,1.689536,1.29218,-1.514751|C,0,
 1.987671,-1.271301,-0.060966|H,0,1.41669,-1.93354,-0.702092|C,0,2.2235
 24,-1.944994,1.292715|H,0,2.815864,-1.295342,1.925316|H,0,1.27911,-2.1
 3625,1.788991|H,0,2.742668,-2.889425,1.167308|C,0,1.742868,2.444417,0.
 30602|H,0,0.699085,2.73303,0.269392|H,0,2.022948,2.292474,1.340962|H,0
 ,2.334079,3.253738,-0.108889|C,0,3.434751,0.655818,-0.41637|H,0,4.0791
 42,1.189733,-1.102246|H,0,3.810099,0.779665,0.592135|C,0,3.304905,-0.8
 41872,-0.757665|H,0,4.149862,-1.425418,-0.417926|H,0,3.21315,-0.960884
 ,-1.83127||Version=IA32W-G09RevA.02|State=1-A|HF=-611.1476229|RMSD=4.6
 02e-009|PG=C01 [X(C13H16N2)]||@


 ... SUBJECTS WHICH DISCLOSE THEIR FULL POWER, MEANING AND BEAUTY AS SOON
 AS THEY ARE PRESENTED TO THE MIND HAVE VERY LITTLE OF THOSE QUALITIES
 TO DISCLOSE.
                           -- CHARLES DUTTON (1882)
 Job cpu time:  0 days  0 hours  5 minutes 31.0 seconds.
 File lengths (MBytes):  RWF=     64 Int=      0 D2E=      0 Chk=      5 Scr=      1
 Normal termination of Gaussian 09 at Tue Dec 17 23:40:15 2024.
