 Entering Link 1 = C:\G09W\l1.exe PID=      1996.
  
 Copyright (c) 1988,1990,1992,1993,1995,1998,2003,2009, Gaussian, Inc.
                  All Rights Reserved.
  
 This is part of the Gaussian(R) 09 program.  It is based on
 the Gaussian(R) 03 system (copyright 2003, Gaussian, Inc.),
 the Gaussian(R) 98 system (copyright 1998, Gaussian, Inc.),
 the Gaussian(R) 94 system (copyright 1995, Gaussian, Inc.),
 the Gaussian 92(TM) system (copyright 1992, Gaussian, Inc.),
 the Gaussian 90(TM) system (copyright 1990, Gaussian, Inc.),
 the Gaussian 88(TM) system (copyright 1988, Gaussian, Inc.),
 the Gaussian 86(TM) system (copyright 1986, Carnegie Mellon
 University), and the Gaussian 82(TM) system (copyright 1983,
 Carnegie Mellon University). Gaussian is a federally registered
 trademark of Gaussian, Inc.
  
 This software contains proprietary and confidential information,
 including trade secrets, belonging to Gaussian, Inc.
  
 This software is provided under written license and may be
 used, copied, transmitted, or stored only in accord with that
 written license.
  
 The following legend is applicable only to US Government
 contracts under FAR:
  
                    RESTRICTED RIGHTS LEGEND
  
 Use, reproduction and disclosure by the US Government is
 subject to restrictions as set forth in subparagraphs (a)
 and (c) of the Commercial Computer Software - Restricted
 Rights clause in FAR 52.227-19.
  
 Gaussian, Inc.
 340 Quinnipiac St., Bldg. 40, Wallingford CT 06492
  
  
 ---------------------------------------------------------------
 Warning -- This program may not be used in any manner that
 competes with the business of Gaussian, Inc. or will provide
 assistance to any competitor of Gaussian, Inc.  The licensee
 of this program is prohibited from giving any competitor of
 Gaussian, Inc. access to this program.  By using this program,
 the user acknowledges that Gaussian, Inc. is engaged in the
 business of creating and licensing software in the field of
 computational chemistry and represents and warrants to the
 licensee that it is not a competitor of Gaussian, Inc. and that
 it will not use this program in any manner prohibited above.
 ---------------------------------------------------------------
  

 Cite this work as:
 Gaussian 09, Revision A.02,
 M. J. Frisch, G. W. Trucks, H. B. Schlegel, G. E. Scuseria, 
 M. A. Robb, J. R. Cheeseman, G. Scalmani, V. Barone, B. Mennucci, 
 G. A. Petersson, H. Nakatsuji, M. Caricato, X. Li, H. P. Hratchian, 
 A. F. Izmaylov, J. Bloino, G. Zheng, J. L. Sonnenberg, M. Hada, 
 M. Ehara, K. Toyota, R. Fukuda, J. Hasegawa, M. Ishida, T. Nakajima, 
 Y. Honda, O. Kitao, H. Nakai, T. Vreven, J. A. Montgomery, Jr., 
 J. E. Peralta, F. Ogliaro, M. Bearpark, J. J. Heyd, E. Brothers, 
 K. N. Kudin, V. N. Staroverov, R. Kobayashi, J. Normand, 
 K. Raghavachari, A. Rendell, J. C. Burant, S. S. Iyengar, J. Tomasi, 
 M. Cossi, N. Rega, J. M. Millam, M. Klene, J. E. Knox, J. B. Cross, 
 V. Bakken, C. Adamo, J. Jaramillo, R. Gomperts, R. E. Stratmann, 
 O. Yazyev, A. J. Austin, R. Cammi, C. Pomelli, J. W. Ochterski, 
 R. L. Martin, K. Morokuma, V. G. Zakrzewski, G. A. Voth, 
 P. Salvador, J. J. Dannenberg, S. Dapprich, A. D. Daniels, 
 O. Farkas, J. B. Foresman, J. V. Ortiz, J. Cioslowski, 
 and D. J. Fox, Gaussian, Inc., Wallingford CT, 2009.
 
 ******************************************
 Gaussian 09:  IA32W-G09RevA.02 11-Jun-2009
                17-Dec-2024 
 ******************************************
 %chk=C:\G09W\Hw5\energy120.chk
 ----------------------------------
 # td b3lyp/3-21g geom=connectivity
 ----------------------------------
 1/38=1,57=2/1;
 2/12=2,17=6,18=5,40=1/2;
 3/5=5,11=2,16=1,25=1,30=1,74=-5/1,2,8,3;
 4//1;
 5/5=2,38=5/2;
 8/6=1,10=1/1;
 9/42=1/14;
 6/7=2,8=2,9=2,10=2/1;
 99/5=1,9=1/99;
 -------------------
 Title Card Required
 -------------------
 Symbolic Z-matrix:
 Charge =  0 Multiplicity = 1
 C                    -2.94496  -0.02683  -0.05489 
 C                    -2.25047  -1.18769   0.25608 
 C                    -0.87095  -1.16877   0.31876 
 C                    -0.16347  -0.00172   0.07314 
 C                    -0.86838   1.15614  -0.23782 
 C                    -2.24586   1.14893  -0.30173 
 H                    -2.78985  -2.09315   0.44701 
 H                    -0.32227  -2.0545    0.5605 
 H                    -0.3339    2.0645   -0.4306 
 H                    -2.78335   2.04392  -0.5416 
 C                    -4.37176  -0.03895  -0.12084 
 N                    -5.51109  -0.04831  -0.17355 
 N                     1.25859  -0.01968   0.14003 
 C                     1.97455   1.26747   0.30357 
 H                     1.66731   1.98763  -0.45344 
 C                     1.9858   -0.93872  -0.78341 
 H                     1.40623  -1.1036   -1.68482 
 C                     2.24029  -2.27644  -0.08508 
 H                     2.84111  -2.11658   0.8018 
 H                     1.3028   -2.73018   0.21494 
 H                     2.75785  -2.96346  -0.74639 
 C                     1.74533   1.8531    1.69633 
 H                     0.70109   2.09977   1.84744 
 H                     2.03958   1.12524   2.44216 
 H                     2.33066   2.75674   1.82867 
 C                     3.42751   0.84225   0.04349 
 H                     4.06236   1.68224  -0.20574 
 H                     3.81661   0.35402   0.92868 
 C                     3.2933   -0.17148  -1.11009 
 H                     4.14294  -0.83643  -1.1866 
 H                     3.18688   0.36117  -2.04826 
 
                          Input orientation:                          
 ---------------------------------------------------------------------
 Center     Atomic      Atomic             Coordinates (Angstroms)
 Number     Number       Type             X           Y           Z
 ---------------------------------------------------------------------
      1          6           0       -2.944956   -0.026826   -0.054892
      2          6           0       -2.250469   -1.187686    0.256075
      3          6           0       -0.870950   -1.168774    0.318759
      4          6           0       -0.163466   -0.001719    0.073138
      5          6           0       -0.868378    1.156144   -0.237822
      6          6           0       -2.245856    1.148931   -0.301728
      7          1           0       -2.789849   -2.093147    0.447006
      8          1           0       -0.322270   -2.054503    0.560504
      9          1           0       -0.333904    2.064500   -0.430595
     10          1           0       -2.783346    2.043922   -0.541604
     11          6           0       -4.371757   -0.038946   -0.120841
     12          7           0       -5.511092   -0.048305   -0.173548
     13          7           0        1.258591   -0.019683    0.140028
     14          6           0        1.974547    1.267473    0.303567
     15          1           0        1.667307    1.987630   -0.453444
     16          6           0        1.985804   -0.938715   -0.783413
     17          1           0        1.406228   -1.103600   -1.684816
     18          6           0        2.240292   -2.276442   -0.085083
     19          1           0        2.841110   -2.116576    0.801798
     20          1           0        1.302796   -2.730176    0.214937
     21          1           0        2.757852   -2.963456   -0.746393
     22          6           0        1.745334    1.853100    1.696326
     23          1           0        0.701092    2.099771    1.847438
     24          1           0        2.039582    1.125239    2.442163
     25          1           0        2.330656    2.756741    1.828666
     26          6           0        3.427514    0.842249    0.043495
     27          1           0        4.062356    1.682245   -0.205736
     28          1           0        3.816607    0.354018    0.928675
     29          6           0        3.293297   -0.171480   -1.110090
     30          1           0        4.142936   -0.836431   -1.186602
     31          1           0        3.186878    0.361174   -2.048260
 ---------------------------------------------------------------------
                    Distance matrix (angstroms):
                    1          2          3          4          5
     1  C    0.000000
     2  C    1.388023   0.000000
     3  C    2.396907   1.381072   0.000000
     4  C    2.784548   2.407398   1.386680   0.000000
     5  C    2.396885   2.765438   2.390613   1.390771   0.000000
     6  C    1.389990   2.402279   2.765344   2.408499   1.378978
     7  H    2.132051   1.071095   2.133796   3.378126   3.836526
     8  H    3.371746   2.135884   1.069582   2.115813   3.353179
     9  H    3.366361   3.836854   3.362144   2.133555   1.071417
    10  H    2.133308   3.370985   3.836522   3.380285   2.132495
    11  C    1.428376   2.441625   3.704782   4.212924   3.703456
    12  N    2.568968   3.480579   4.798826   5.353515   4.796835
    13  N    4.208070   3.700162   2.426376   1.423743   2.459540
    14  C    5.099530   4.886801   3.745982   2.497007   2.896156
    15  H    5.048747   5.092643   4.123340   2.754365   2.677230
    16  C    5.067019   4.369043   3.070628   2.496198   3.582243
    17  H    4.769580   4.140719   3.033825   2.601630   3.517679
    18  C    5.652298   4.633434   3.327137   3.313223   4.633552
    19  H    6.211242   5.204308   3.861482   3.745803   5.054880
    20  H    5.042252   3.873843   2.678419   3.100727   4.474647
    21  H    6.451666   5.407549   4.186124   4.240002   5.511741
    22  C    5.347870   5.223710   4.227808   3.117469   3.325382
    23  H    4.629788   4.695905   3.935932   2.883030   2.775244
    24  H    5.692816   5.341642   4.271128   3.425746   3.954681
    25  H    6.255247   6.246459   5.285808   4.112374   4.131114
    26  C    6.432212   6.033682   4.753607   3.688943   4.316522
    27  H    7.214298   6.949930   5.721967   4.557529   4.958825
    28  H    6.843331   6.295924   4.966295   4.086499   4.894201
    29  C    6.328520   5.799347   4.514106   3.657602   4.454545
    30  H    7.223188   6.563561   5.245533   4.563857   5.475747
    31  H    6.459369   6.105217   4.940596   3.982063   4.511625
                    6          7          8          9         10
     6  C    0.000000
     7  H    3.371587   0.000000
     8  H    3.834790   2.470490   0.000000
     9  H    2.123778   4.907940   4.236579   0.000000
    10  H    1.071189   4.253555   4.905978   2.452043   0.000000
    11  C    2.441972   2.654171   4.574390   4.563408   2.653004
    12  N    3.480168   3.460004   5.611376   5.597615   3.457380
    13  N    3.720478   4.558876   2.610826   2.684301   4.589155
    14  C    4.265236   5.832136   4.046839   2.550136   4.894357
    15  H    4.004906   6.109811   4.617937   2.002817   4.451882
    16  C    4.743125   5.064929   2.894530   3.811146   5.630221
    17  H    4.508275   4.809462   2.988876   3.825962   5.363427
    18  C    5.648507   5.061525   2.651936   5.058620   6.641603
    19  H    6.144797   5.642174   3.173176   5.392671   7.123832
    20  H    5.282740   4.148422   1.793541   5.107290   6.329370
    21  H    6.492037   5.740960   3.467179   5.910924   7.471322
    22  C    4.518592   6.140159   4.564476   2.981898   5.055066
    23  H    3.769286   5.632800   4.467825   2.502378   4.225157
    24  H    5.088661   6.136942   4.385173   3.842965   5.745213
    25  H    5.297933   7.186791   5.638645   3.561367   5.681488
    26  C    5.692132   6.887306   4.766483   3.983331   6.353042
    27  H    6.331443   7.850628   5.811656   4.418572   6.863472
    28  H    6.236925   7.061578   4.802794   4.690427   6.969711
    29  C    5.751447   6.566735   4.405563   4.314847   6.492824
    30  H    6.748432   7.232670   4.947135   5.387861   7.529000
    31  H    5.760689   6.926132   4.995524   4.232501   6.383199
                   11         12         13         14         15
    11  C    0.000000
    12  N    1.140592   0.000000
    13  N    5.636421   6.777002   0.000000
    14  C    6.493260   7.615359   1.481927   0.000000
    15  H    6.378709   7.466778   2.132736   1.089077   0.000000
    16  C    6.455011   7.574181   1.492046   2.459455   2.962063
    17  H    6.079853   7.158693   2.127611   3.146210   3.337685
    18  C    6.980462   8.065753   2.471310   3.575053   4.318137
    19  H    7.562622   8.659580   2.709108   3.528591   4.449489
    20  H    6.289357   7.332968   2.711888   4.054664   4.778838
    21  H    7.731455   8.786449   3.420428   4.429079   5.078224
    22  C    6.655880   7.730944   2.483203   1.528161   2.155388
    23  H    5.846540   6.876761   2.778154   2.167474   2.498040
    24  H    7.002112   8.076622   2.687121   2.144308   3.044150
    25  H    7.519227   8.565638   3.421893   2.161171   2.497917
    26  C    7.850614   8.985481   2.335910   1.536088   2.158049
    27  H    8.608366   9.728655   3.298061   2.188691   2.427113
    28  H    8.264697   9.401209   2.702788   2.149033   3.032892
    29  C    7.729762   8.854916   2.392878   2.410002   2.781507
    30  H    8.618111   9.738978   3.278181   3.368817   3.826432
    31  H    7.810762   8.907126   2.941419   2.796821   2.738228
                   16         17         18         19         20
    16  C    0.000000
    17  H    1.084262   0.000000
    18  C    1.530340   2.151828   0.000000
    19  H    2.152161   3.044381   1.083096   0.000000
    20  H    2.161604   2.503100   1.083875   1.757077   0.000000
    21  H    2.167257   2.483262   1.084983   1.766644   1.759478
    22  C    3.741813   4.504352   4.524546   4.214171   4.837021
    23  H    4.219509   4.820333   5.025436   4.842584   5.133760
    24  H    3.829770   4.732950   4.242487   3.720567   4.513049
    25  H    4.538532   5.301071   5.385493   5.006420   5.810927
    26  C    2.436009   3.295297   3.339501   3.110232   4.160053
    27  H    3.393406   4.123545   4.359550   4.115532   5.221263
    28  H    2.820327   3.842514   3.229829   2.659235   4.042390
    29  C    1.550776   2.181786   2.567163   2.764631   3.502101
    30  H    2.196871   2.794489   2.628123   2.699492   3.690119
    31  H    2.175346   2.334175   3.421565   3.792312   4.269458
                   21         22         23         24         25
    21  H    0.000000
    22  C    5.494659   0.000000
    23  H    6.049338   1.083569   0.000000
    24  H    5.234523   1.082883   1.759251   0.000000
    25  H    6.287613   1.084750   1.757111   1.767173   0.000000
    26  C    3.944080   2.565814   3.502706   2.785687   2.838171
    27  H    4.855571   3.002602   3.960801   3.378349   2.879604
    28  H    3.864253   2.669589   3.687575   2.458302   2.964981
    29  C    2.866027   3.790921   4.541483   3.983940   4.258807
    30  H    2.576136   4.614471   5.447290   4.630355   5.028627
    31  H    3.596121   4.280866   4.937439   4.697231   4.637069
                   26         27         28         29         30
    26  C    0.000000
    27  H    1.082003   0.000000
    28  H    1.083193   1.763935   0.000000
    29  C    1.541563   2.201272   2.169461   0.000000
    30  H    2.200667   2.704130   2.449093   1.081620   0.000000
    31  H    2.159809   2.430346   3.042820   1.084070   1.758056
                   31
    31  H    0.000000
 Stoichiometry    C13H16N2
 Framework group  C1[X(C13H16N2)]
 Deg. of freedom    87
 Full point group                 C1      NOp   1
 Largest Abelian subgroup         C1      NOp   1
 Largest concise Abelian subgroup C1      NOp   1
                         Standard orientation:                         
 ---------------------------------------------------------------------
 Center     Atomic      Atomic             Coordinates (Angstroms)
 Number     Number       Type             X           Y           Z
 ---------------------------------------------------------------------
      1          6           0        2.945271    0.018526   -0.058670
      2          6           0        2.269625    1.079500    0.528225
      3          6           0        0.889826    1.069202    0.586613
      4          6           0        0.163432    0.009987    0.063836
      5          6           0        0.849552   -1.048260   -0.522335
      6          6           0        2.227116   -1.048969   -0.584769
      7          1           0        2.823677    1.901365    0.934192
      8          1           0        0.355513    1.877940    1.038784
      9          1           0        0.300361   -1.872564   -0.930805
     10          1           0        2.750080   -1.866954   -1.037378
     11          6           0        4.372239    0.022238   -0.121963
     12          7           0        5.511702    0.024904   -0.172626
     13          7           0       -1.258289    0.035127    0.135401
     14          6           0       -1.996229   -1.240561   -0.020070
     15          1           0       -1.699207   -1.758527   -0.930881
     16          6           0       -1.967549    1.164494   -0.533692
     17          1           0       -1.382960    1.535234   -1.368216
     18          6           0       -2.201279    2.294612    0.471367
     19          1           0       -2.806985    1.932652    1.293075
     20          1           0       -1.257054    2.645108    0.871837
     21          1           0       -2.705497    3.131316   -0.000732
     22          6           0       -1.780494   -2.153201    1.186505
     23          1           0       -0.740944   -2.447029    1.270914
     24          1           0       -2.064366   -1.625251    2.088348
     25          1           0       -2.381282   -3.051682    1.094487
     26          6           0       -3.441158   -0.740033   -0.165734
     27          1           0       -4.089405   -1.482541   -0.612039
     28          1           0       -3.824255   -0.476895    0.812685
     29          6           0       -3.286926    0.522885   -1.036174
     30          1           0       -4.125052    1.200633   -0.946144
     31          1           0       -3.187073    0.234450   -2.076388
 ---------------------------------------------------------------------
 Rotational constants (GHZ):      1.4250162      0.3235361      0.2859411
 Standard basis: 3-21G (6D, 7F)
 There are   167 symmetry adapted basis functions of A   symmetry.
 Integral buffers will be    262144 words long.
 Raffenetti 2 integral format.
 Two-electron integral symmetry is turned on.
   167 basis functions,   273 primitive gaussians,   167 cartesian basis functions
    54 alpha electrons       54 beta electrons
       nuclear repulsion energy       951.9495406592 Hartrees.
 NAtoms=   31 NActive=   31 NUniq=   31 SFac= 7.50D-01 NAtFMM=   80 NAOKFM=F Big=F
 One-electron integrals computed using PRISM.
 NBasis=   167 RedAO= T  NBF=   167
 NBsUse=   167 1.00D-06 NBFU=   167
 Harris functional with IExCor=  402 diagonalized for initial guess.
 ExpMin= 1.83D-01 ExpMax= 2.43D+02 ExpMxC= 2.43D+02 IAcc=1 IRadAn=         1 AccDes= 0.00D+00
 HarFok:  IExCor=  402 AccDes= 0.00D+00 IRadAn=         1 IDoV= 1
 ScaDFX=  1.000000  1.000000  1.000000  1.000000
 FoFCou: FMM=F IPFlag=           0 FMFlag=      100000 FMFlg1=           0
         NFxFlg=           0 DoJE=T BraDBF=F KetDBF=T FulRan=T
         Omega=  0.000000  0.000000  1.000000  0.000000  0.000000 ICntrl=     500 IOpCl=  0
         NMat0=    1 NMatS0=    1 NMatT0=    0 NMatD0=    1 NMtDS0=    0 NMtDT0=    0
         I1Cent=           4 NGrid=           0.
 Petite list used in FoFCou.
 Initial guess orbital symmetries:
       Occupied  (A) (A) (A) (A) (A) (A) (A) (A) (A) (A) (A) (A)
                 (A) (A) (A) (A) (A) (A) (A) (A) (A) (A) (A) (A)
                 (A) (A) (A) (A) (A) (A) (A) (A) (A) (A) (A) (A)
                 (A) (A) (A) (A) (A) (A) (A) (A) (A) (A) (A) (A)
                 (A) (A) (A) (A) (A) (A)
       Virtual   (A) (A) (A) (A) (A) (A) (A) (A) (A) (A) (A) (A)
                 (A) (A) (A) (A) (A) (A) (A) (A) (A) (A) (A) (A)
                 (A) (A) (A) (A) (A) (A) (A) (A) (A) (A) (A) (A)
                 (A) (A) (A) (A) (A) (A) (A) (A) (A) (A) (A) (A)
                 (A) (A) (A) (A) (A) (A) (A) (A) (A) (A) (A) (A)
                 (A) (A) (A) (A) (A) (A) (A) (A) (A) (A) (A) (A)
                 (A) (A) (A) (A) (A) (A) (A) (A) (A) (A) (A) (A)
                 (A) (A) (A) (A) (A) (A) (A) (A) (A) (A) (A) (A)
                 (A) (A) (A) (A) (A) (A) (A) (A) (A) (A) (A) (A)
                 (A) (A) (A) (A) (A)
 The electronic state of the initial guess is 1-A.
 Requested convergence on RMS density matrix=1.00D-08 within 128 cycles.
 Requested convergence on MAX density matrix=1.00D-06.
 Requested convergence on             energy=1.00D-06.
 No special actions if energy rises.
 Integral accuracy reduced to 1.0D-05 until final iterations.
 Initial convergence to 1.0D-05 achieved.  Increase integral accuracy.
 SCF Done:  E(RB3LYP) =  -611.150372593     A.U. after   15 cycles
             Convg  =    0.7631D-08             -V/T =  2.0074
 ExpMin= 1.83D-01 ExpMax= 2.43D+02 ExpMxC= 2.43D+02 IAcc=1 IRadAn=         1 AccDes= 0.00D+00
 HarFok:  IExCor=  205 AccDes= 0.00D+00 IRadAn=         1 IDoV=-2
 ScaDFX=  1.000000  1.000000  1.000000  1.000000
 Range of M.O.s used for correlation:    16   167
 NBasis=   167 NAE=    54 NBE=    54 NFC=    15 NFV=     0
 NROrb=    152 NOA=    39 NOB=    39 NVA=   113 NVB=   113
 Would need an additional   268100000 words for in-memory AO integral storage.
 Orbital symmetries:
       Occupied  (A) (A) (A) (A) (A) (A) (A) (A) (A) (A) (A) (A)
                 (A) (A) (A) (A) (A) (A) (A) (A) (A) (A) (A) (A)
                 (A) (A) (A) (A) (A) (A) (A) (A) (A) (A) (A) (A)
                 (A) (A) (A) (A) (A) (A) (A) (A) (A) (A) (A) (A)
                 (A) (A) (A) (A) (A) (A)
       Virtual   (A) (A) (A) (A) (A) (A) (A) (A) (A) (A) (A) (A)
                 (A) (A) (A) (A) (A) (A) (A) (A) (A) (A) (A) (A)
                 (A) (A) (A) (A) (A) (A) (A) (A) (A) (A) (A) (A)
                 (A) (A) (A) (A) (A) (A) (A) (A) (A) (A) (A) (A)
                 (A) (A) (A) (A) (A) (A) (A) (A) (A) (A) (A) (A)
                 (A) (A) (A) (A) (A) (A) (A) (A) (A) (A) (A) (A)
                 (A) (A) (A) (A) (A) (A) (A) (A) (A) (A) (A) (A)
                 (A) (A) (A) (A) (A) (A) (A) (A) (A) (A) (A) (A)
                 (A) (A) (A) (A) (A) (A) (A) (A) (A) (A) (A) (A)
                 (A) (A) (A) (A) (A)
    12 initial guesses have been made.
 Convergence on wavefunction:    0.001000000000000
 Iteration     1 Dimension    12 NMult    12
 CISAX will form    12 AO SS matrices at one time.
 New state      1 was old state      2
 New state      2 was old state      1
 Iteration     2 Dimension    18 NMult    18
 New state      1 was old state      2
 New state      2 was old state      1
 Iteration     3 Dimension    24 NMult    24
 Iteration     4 Dimension    30 NMult    30
 Iteration     5 Dimension    34 NMult    34
 Iteration     6 Dimension    36 NMult    36
 ***********************************************************************
 Excited states from <AA,BB:AA,BB> singles matrix:
 ***********************************************************************
 
 Ground to excited state transition electric dipole moments (Au):
       state          X           Y           Z        Dip. S.      Osc.
         1        -1.6958     -0.0756     -0.0408      2.8830      0.3168
         2         0.4819     -0.2653     -0.1587      0.3278      0.0366
         3        -0.0994      0.3026      0.1750      0.1321      0.0189
 Ground to excited state transition velocity dipole moments (Au):
       state          X           Y           Z        Dip. S.      Osc.
         1         0.2282      0.0109      0.0136      0.0524      0.2119
         2        -0.0626      0.0406      0.0250      0.0062      0.0247
         3         0.0153     -0.0551     -0.0324      0.0043      0.0134
 Ground to excited state transition magnetic dipole moments (Au):
       state          X           Y           Z
         1        -0.1367     -0.0317      0.1522
         2         0.0842     -0.2404      0.6121
         3        -0.0427      0.1228     -0.2976
 <0|del|b> * <b|rxdel|0> + <0|del|b> * <b|delr+rdel|0>
 Rotatory Strengths (R) in cgs (10**-40 erg-esu-cm/Gauss)
       state          XX          YY          ZZ    R(velocity)
         1         6.9280    -38.9262    -94.4567    -42.1517
 Total R(velocity) tensor for State=          1
                 1             2             3 
      1   0.692796D+01 -0.416287D+02 -0.826541D+02
      2  -0.456244D+01 -0.389262D+02  0.107621D+03
      3   0.713729D+01 -0.312802D+02 -0.944567D+02
 R(velocity) tensor in inp. orien. for State=          1
                 1             2             3 
      1   0.782228D+01 -0.601889D+02  0.717457D+02
      2  -0.190650D+01 -0.251861D+02 -0.886708D+02
      3  -0.856029D+01  0.487480D+02 -0.109091D+03
         2         8.6056     20.7674    -28.3827      0.3301
 Total R(velocity) tensor for State=          2
                 1             2             3 
      1   0.860560D+01 -0.293515D+02  0.693743D+02
      2  -0.233308D+01  0.207674D+02 -0.396627D+02
      3  -0.766213D+01  0.562632D+01 -0.283827D+02
 R(velocity) tensor in inp. orien. for State=          2
                 1             2             3 
      1   0.904475D+01 -0.114923D+02 -0.752013D+02
      2  -0.427687D+01  0.947434D+01  0.480209D+02
      3   0.685701D+01  0.408824D+01 -0.175287D+02
         3         5.9078      5.4599     -4.0577      2.4367
 Total R(velocity) tensor for State=          3
                 1             2             3 
      1   0.590780D+01 -0.891887D+00  0.430893D+01
      2  -0.131332D+01  0.545991D+01 -0.991089D+01
      3  -0.370498D+01  0.135588D+01 -0.405765D+01
 R(velocity) tensor in inp. orien. for State=          3
                 1             2             3 
      1   0.594380D+01  0.241332D+00 -0.457270D+01
      2  -0.215863D+01  0.282499D+01  0.115765D+02
      3   0.328251D+01  0.446567D+00 -0.145874D+01
 1/2[<0|r|b>*<b|rxdel|0> + (<0|rxdel|b>*<b|r|0>)*]
 Rotatory Strengths (R) in cgs (10**-40 erg-esu-cm/Gauss)
       state          XX          YY          ZZ     R(length)     R(au)
         1      -163.9627     -1.6930      4.3896    -53.7554     -0.1140
         2       -28.7014    -45.1127     68.6752     -1.7129     -0.0036
         3        -3.0014    -26.2783     36.8290      2.5164      0.0053
  1/2[<0|del|b>*<b|r|0> + (<0|r|b>*<b|del|0>)*] (Au)
       state          X           Y           Z        Dip. S.   Osc.(frdel)
         1        -0.3870     -0.0008     -0.0006      0.3884      0.2589
         2        -0.0302     -0.0108     -0.0040      0.0449      0.0299
         3        -0.0015     -0.0167     -0.0057      0.0239      0.0159
 Ground to excited state transition densities written to RWF  633

 Excitation energies and oscillator strengths:
 
 Excited State   1:      Singlet-A      4.4852 eV  276.43 nm  f=0.3168  <S**2>=0.000
      54 -> 55         0.67674
      54 -> 56         0.15366
 This state for optimization and/or second-order correction.
 Copying the excited state density for this state as the 1-particle RhoCI density.
 
 Excited State   2:      Singlet-A      4.5528 eV  272.33 nm  f=0.0366  <S**2>=0.000
      53 -> 55         0.16614
      54 -> 55        -0.15479
      54 -> 56         0.66756
 
 Excited State   3:      Singlet-A      5.8363 eV  212.43 nm  f=0.0189  <S**2>=0.000
      52 -> 56        -0.43874
      53 -> 55         0.53804
      54 -> 56        -0.11289
 SavETr:  write IOETrn=   770 NScale= 10 NData=  16 NLR=1 LETran=      62.

 **********************************************************************

            Population analysis using the SCF density.

 **********************************************************************

 Orbital symmetries:
       Occupied  (A) (A) (A) (A) (A) (A) (A) (A) (A) (A) (A) (A)
                 (A) (A) (A) (A) (A) (A) (A) (A) (A) (A) (A) (A)
                 (A) (A) (A) (A) (A) (A) (A) (A) (A) (A) (A) (A)
                 (A) (A) (A) (A) (A) (A) (A) (A) (A) (A) (A) (A)
                 (A) (A) (A) (A) (A) (A)
       Virtual   (A) (A) (A) (A) (A) (A) (A) (A) (A) (A) (A) (A)
                 (A) (A) (A) (A) (A) (A) (A) (A) (A) (A) (A) (A)
                 (A) (A) (A) (A) (A) (A) (A) (A) (A) (A) (A) (A)
                 (A) (A) (A) (A) (A) (A) (A) (A) (A) (A) (A) (A)
                 (A) (A) (A) (A) (A) (A) (A) (A) (A) (A) (A) (A)
                 (A) (A) (A) (A) (A) (A) (A) (A) (A) (A) (A) (A)
                 (A) (A) (A) (A) (A) (A) (A) (A) (A) (A) (A) (A)
                 (A) (A) (A) (A) (A) (A) (A) (A) (A) (A) (A) (A)
                 (A) (A) (A) (A) (A) (A) (A) (A) (A) (A) (A) (A)
                 (A) (A) (A) (A) (A)
 The electronic state is 1-A.
 Alpha  occ. eigenvalues --  -14.26394 -14.23800 -10.17695 -10.16585 -10.16390
 Alpha  occ. eigenvalues --  -10.16229 -10.14914 -10.14538 -10.14459 -10.13510
 Alpha  occ. eigenvalues --  -10.13269 -10.12921 -10.12759 -10.11260 -10.11237
 Alpha  occ. eigenvalues --   -0.95863  -0.92631  -0.88164  -0.81350  -0.79242
 Alpha  occ. eigenvalues --   -0.76899  -0.75574  -0.72167  -0.65716  -0.64957
 Alpha  occ. eigenvalues --   -0.63984  -0.58841  -0.57840  -0.56884  -0.53377
 Alpha  occ. eigenvalues --   -0.49724  -0.48610  -0.46776  -0.46523  -0.44811
 Alpha  occ. eigenvalues --   -0.43188  -0.42948  -0.42182  -0.41540  -0.40207
 Alpha  occ. eigenvalues --   -0.39532  -0.38248  -0.38076  -0.37569  -0.35861
 Alpha  occ. eigenvalues --   -0.34558  -0.34128  -0.33796  -0.33700  -0.33457
 Alpha  occ. eigenvalues --   -0.32932  -0.27521  -0.27077  -0.20633
 Alpha virt. eigenvalues --   -0.02662  -0.00970   0.06163   0.09343   0.10037
 Alpha virt. eigenvalues --    0.10461   0.11491   0.12702   0.13808   0.15001
 Alpha virt. eigenvalues --    0.15687   0.16302   0.16696   0.18335   0.18545
 Alpha virt. eigenvalues --    0.18989   0.20000   0.20337   0.20986   0.21753
 Alpha virt. eigenvalues --    0.22531   0.22909   0.23353   0.25041   0.26177
 Alpha virt. eigenvalues --    0.27874   0.28769   0.30048   0.31692   0.32229
 Alpha virt. eigenvalues --    0.35778   0.37296   0.38895   0.39564   0.51634
 Alpha virt. eigenvalues --    0.54707   0.60317   0.63892   0.66094   0.66299
 Alpha virt. eigenvalues --    0.67687   0.68698   0.69779   0.70616   0.70877
 Alpha virt. eigenvalues --    0.71833   0.72409   0.74290   0.74994   0.75810
 Alpha virt. eigenvalues --    0.76939   0.77232   0.77856   0.78452   0.79600
 Alpha virt. eigenvalues --    0.80055   0.81752   0.83871   0.85499   0.87035
 Alpha virt. eigenvalues --    0.88141   0.90724   0.93474   0.94374   0.94922
 Alpha virt. eigenvalues --    0.96365   0.96725   0.99917   1.00934   1.01860
 Alpha virt. eigenvalues --    1.02336   1.04941   1.05755   1.07671   1.08081
 Alpha virt. eigenvalues --    1.09210   1.09980   1.11626   1.11956   1.13631
 Alpha virt. eigenvalues --    1.14726   1.15910   1.16353   1.18984   1.20766
 Alpha virt. eigenvalues --    1.21781   1.24245   1.24814   1.29287   1.30564
 Alpha virt. eigenvalues --    1.33965   1.37689   1.39998   1.41438   1.50186
 Alpha virt. eigenvalues --    1.52122   1.53342   1.54852   1.57327   1.64391
 Alpha virt. eigenvalues --    1.70005   1.75695   1.79328   1.87123   1.91309
 Alpha virt. eigenvalues --    1.95963   2.00360   2.20309   2.33204   2.44327
 Alpha virt. eigenvalues --    2.51189   3.00355   3.03868
          Condensed to atoms (all electrons):
              1          2          3          4          5          6
     1  C    5.436135   0.446999  -0.086135  -0.030599  -0.086332   0.449284
     2  C    0.446999   5.135370   0.441814  -0.065217  -0.028026  -0.057017
     3  C   -0.086135   0.441814   5.231525   0.426463  -0.083164  -0.028522
     4  C   -0.030599  -0.065217   0.426463   4.965854   0.380843  -0.053503
     5  C   -0.086332  -0.028026  -0.083164   0.380843   5.281253   0.424525
     6  C    0.449284  -0.057017  -0.028522  -0.053503   0.424525   5.142453
     7  H   -0.043088   0.396424  -0.034029   0.004106  -0.000185   0.003793
     8  H    0.004270  -0.036309   0.377704  -0.048330   0.004892  -0.000261
     9  H    0.004541  -0.000160   0.004006  -0.051586   0.392397  -0.041051
    10  H   -0.042705   0.003818  -0.000196   0.003808  -0.034584   0.396744
    11  C    0.070327  -0.077102   0.004312  -0.000119   0.004568  -0.076923
    12  N   -0.118342  -0.000704  -0.000006   0.000000  -0.000006  -0.000743
    13  N   -0.000356   0.004148  -0.065244   0.307160  -0.059686   0.004689
    14  C    0.000005  -0.000134   0.002778  -0.062633  -0.007309   0.000405
    15  H    0.000000   0.000007  -0.000087  -0.003199  -0.000612  -0.000310
    16  C    0.000022  -0.000046  -0.002926  -0.064432   0.000361  -0.000079
    17  H   -0.000019   0.000077   0.001564  -0.001574   0.002158  -0.000076
    18  C   -0.000003   0.000103  -0.007348  -0.000424  -0.000200   0.000004
    19  H    0.000000  -0.000001   0.000102   0.000113   0.000006   0.000000
    20  H    0.000001   0.000064  -0.001143   0.000364   0.000016  -0.000001
    21  H    0.000000   0.000000   0.000110   0.000015   0.000005   0.000000
    22  C   -0.000002   0.000013  -0.000031  -0.002802  -0.002621  -0.000067
    23  H   -0.000009  -0.000013   0.000019   0.001784   0.004021   0.000111
    24  H    0.000000   0.000001  -0.000055   0.000521  -0.000031  -0.000003
    25  H    0.000000   0.000000  -0.000002   0.000035  -0.000031  -0.000001
    26  C    0.000000   0.000001  -0.000130   0.005043   0.000172  -0.000004
    27  H    0.000000   0.000000   0.000000  -0.000088   0.000009   0.000000
    28  H    0.000000   0.000000   0.000004  -0.000134  -0.000006   0.000000
    29  C    0.000000   0.000001   0.000019   0.004854  -0.000169   0.000002
    30  H    0.000000   0.000000  -0.000001  -0.000059   0.000000   0.000000
    31  H    0.000000   0.000000   0.000008  -0.000153  -0.000001   0.000000
              7          8          9         10         11         12
     1  C   -0.043088   0.004270   0.004541  -0.042705   0.070327  -0.118342
     2  C    0.396424  -0.036309  -0.000160   0.003818  -0.077102  -0.000704
     3  C   -0.034029   0.377704   0.004006  -0.000196   0.004312  -0.000006
     4  C    0.004106  -0.048330  -0.051586   0.003808  -0.000119   0.000000
     5  C   -0.000185   0.004892   0.392397  -0.034584   0.004568  -0.000006
     6  C    0.003793  -0.000261  -0.041051   0.396744  -0.076923  -0.000743
     7  H    0.479675  -0.003775   0.000002  -0.000052  -0.006277  -0.000097
     8  H   -0.003775   0.477964  -0.000043   0.000002  -0.000077   0.000000
     9  H    0.000002  -0.000043   0.495024  -0.003988  -0.000081   0.000000
    10  H   -0.000052   0.000002  -0.003988   0.479933  -0.006201  -0.000096
    11  C   -0.006277  -0.000077  -0.000081  -0.006201   4.955942   0.848632
    12  N   -0.000097   0.000000   0.000000  -0.000096   0.848632   6.751729
    13  N   -0.000018  -0.005561  -0.008833  -0.000016   0.000000   0.000000
    14  C    0.000001  -0.000026   0.003197  -0.000002   0.000000   0.000000
    15  H    0.000000   0.000007   0.009286   0.000005   0.000000   0.000000
    16  C   -0.000001  -0.000140   0.000037   0.000001   0.000000   0.000000
    17  H   -0.000001   0.000259   0.000073   0.000000   0.000000   0.000000
    18  C    0.000004   0.000886  -0.000006   0.000000   0.000000   0.000000
    19  H    0.000000   0.000054   0.000000   0.000000   0.000000   0.000000
    20  H   -0.000010   0.015097   0.000000   0.000000   0.000000   0.000000
    21  H    0.000000   0.000113   0.000000   0.000000   0.000000   0.000000
    22  C    0.000000  -0.000016  -0.001345   0.000000   0.000000   0.000000
    23  H    0.000000  -0.000004   0.000411  -0.000005   0.000000   0.000000
    24  H    0.000000   0.000007   0.000038   0.000000   0.000000   0.000000
    25  H    0.000000   0.000000   0.000124   0.000000   0.000000   0.000000
    26  C    0.000000  -0.000010  -0.000026   0.000000   0.000000   0.000000
    27  H    0.000000   0.000000   0.000003   0.000000   0.000000   0.000000
    28  H    0.000000   0.000001   0.000003   0.000000   0.000000   0.000000
    29  C    0.000000   0.000027  -0.000040   0.000000   0.000000   0.000000
    30  H    0.000000  -0.000001   0.000000   0.000000   0.000000   0.000000
    31  H    0.000000   0.000000  -0.000003   0.000000   0.000000   0.000000
             13         14         15         16         17         18
     1  C   -0.000356   0.000005   0.000000   0.000022  -0.000019  -0.000003
     2  C    0.004148  -0.000134   0.000007  -0.000046   0.000077   0.000103
     3  C   -0.065244   0.002778  -0.000087  -0.002926   0.001564  -0.007348
     4  C    0.307160  -0.062633  -0.003199  -0.064432  -0.001574  -0.000424
     5  C   -0.059686  -0.007309  -0.000612   0.000361   0.002158  -0.000200
     6  C    0.004689   0.000405  -0.000310  -0.000079  -0.000076   0.000004
     7  H   -0.000018   0.000001   0.000000  -0.000001  -0.000001   0.000004
     8  H   -0.005561  -0.000026   0.000007  -0.000140   0.000259   0.000886
     9  H   -0.008833   0.003197   0.009286   0.000037   0.000073  -0.000006
    10  H   -0.000016  -0.000002   0.000005   0.000001   0.000000   0.000000
    11  C    0.000000   0.000000   0.000000   0.000000   0.000000   0.000000
    12  N    0.000000   0.000000   0.000000   0.000000   0.000000   0.000000
    13  N    7.259308   0.255573  -0.048084   0.261837  -0.039957  -0.065890
    14  C    0.255573   5.305121   0.349691  -0.080929   0.001168   0.005355
    15  H   -0.048084   0.349691   0.608152   0.000994   0.000961  -0.000241
    16  C    0.261837  -0.080929   0.000994   5.309352   0.372134   0.267456
    17  H   -0.039957   0.001168   0.000961   0.372134   0.553055  -0.061625
    18  C   -0.065890   0.005355  -0.000241   0.267456  -0.061625   5.417584
    19  H    0.002686   0.000158   0.000027  -0.042791   0.004075   0.362082
    20  H   -0.001434  -0.000041  -0.000001  -0.040035  -0.001776   0.355114
    21  H    0.003064  -0.000139   0.000009  -0.037227   0.002116   0.335680
    22  C   -0.055704   0.282400  -0.062098   0.004347  -0.000135  -0.000087
    23  H   -0.002793  -0.038622  -0.003629  -0.000017  -0.000004   0.000003
    24  H    0.003057  -0.041706   0.004617   0.000045   0.000007  -0.000043
    25  H    0.002811  -0.038369   0.001837  -0.000086   0.000003  -0.000001
    26  C   -0.066650   0.270303  -0.046740  -0.091022   0.004786   0.000462
    27  H    0.002631  -0.037067  -0.001095   0.004019  -0.000037  -0.000100
    28  H    0.001215  -0.045973   0.004285   0.000605   0.000016   0.000842
    29  C   -0.052160  -0.090991  -0.001947   0.272761  -0.037029  -0.071910
    30  H    0.002313   0.004248  -0.000118  -0.038883   0.001316  -0.002409
    31  H    0.001179   0.000962   0.002071  -0.039220  -0.004385   0.003540
             19         20         21         22         23         24
     1  C    0.000000   0.000001   0.000000  -0.000002  -0.000009   0.000000
     2  C   -0.000001   0.000064   0.000000   0.000013  -0.000013   0.000001
     3  C    0.000102  -0.001143   0.000110  -0.000031   0.000019  -0.000055
     4  C    0.000113   0.000364   0.000015  -0.002802   0.001784   0.000521
     5  C    0.000006   0.000016   0.000005  -0.002621   0.004021  -0.000031
     6  C    0.000000  -0.000001   0.000000  -0.000067   0.000111  -0.000003
     7  H    0.000000  -0.000010   0.000000   0.000000   0.000000   0.000000
     8  H    0.000054   0.015097   0.000113  -0.000016  -0.000004   0.000007
     9  H    0.000000   0.000000   0.000000  -0.001345   0.000411   0.000038
    10  H    0.000000   0.000000   0.000000   0.000000  -0.000005   0.000000
    11  C    0.000000   0.000000   0.000000   0.000000   0.000000   0.000000
    12  N    0.000000   0.000000   0.000000   0.000000   0.000000   0.000000
    13  N    0.002686  -0.001434   0.003064  -0.055704  -0.002793   0.003057
    14  C    0.000158  -0.000041  -0.000139   0.282400  -0.038622  -0.041706
    15  H    0.000027  -0.000001   0.000009  -0.062098  -0.003629   0.004617
    16  C   -0.042791  -0.040035  -0.037227   0.004347  -0.000017   0.000045
    17  H    0.004075  -0.001776   0.002116  -0.000135  -0.000004   0.000007
    18  C    0.362082   0.355114   0.335680  -0.000087   0.000003  -0.000043
    19  H    0.524505  -0.027056  -0.023285  -0.000098  -0.000001   0.000097
    20  H   -0.027056   0.518755  -0.025746   0.000002   0.000000   0.000001
    21  H   -0.023285  -0.025746   0.560969  -0.000001   0.000000   0.000002
    22  C   -0.000098   0.000002  -0.000001   5.362684   0.367157   0.359848
    23  H   -0.000001   0.000000   0.000000   0.367157   0.516003  -0.026154
    24  H    0.000097   0.000001   0.000002   0.359848  -0.026154   0.519064
    25  H    0.000002   0.000000   0.000000   0.350287  -0.028199  -0.023370
    26  C    0.001748  -0.000166   0.000236  -0.057853   0.003782  -0.004222
    27  H   -0.000012   0.000001   0.000002   0.000277  -0.000076   0.000000
    28  H    0.001783  -0.000046   0.000057  -0.004496   0.000021   0.005215
    29  C   -0.003437   0.003814  -0.001056   0.005058  -0.000137  -0.000059
    30  H    0.000575   0.000113   0.001621  -0.000070   0.000001  -0.000002
    31  H    0.000030  -0.000089   0.000005  -0.000058   0.000003   0.000003
             25         26         27         28         29         30
     1  C    0.000000   0.000000   0.000000   0.000000   0.000000   0.000000
     2  C    0.000000   0.000001   0.000000   0.000000   0.000001   0.000000
     3  C   -0.000002  -0.000130   0.000000   0.000004   0.000019  -0.000001
     4  C    0.000035   0.005043  -0.000088  -0.000134   0.004854  -0.000059
     5  C   -0.000031   0.000172   0.000009  -0.000006  -0.000169   0.000000
     6  C   -0.000001  -0.000004   0.000000   0.000000   0.000002   0.000000
     7  H    0.000000   0.000000   0.000000   0.000000   0.000000   0.000000
     8  H    0.000000  -0.000010   0.000000   0.000001   0.000027  -0.000001
     9  H    0.000124  -0.000026   0.000003   0.000003  -0.000040   0.000000
    10  H    0.000000   0.000000   0.000000   0.000000   0.000000   0.000000
    11  C    0.000000   0.000000   0.000000   0.000000   0.000000   0.000000
    12  N    0.000000   0.000000   0.000000   0.000000   0.000000   0.000000
    13  N    0.002811  -0.066650   0.002631   0.001215  -0.052160   0.002313
    14  C   -0.038369   0.270303  -0.037067  -0.045973  -0.090991   0.004248
    15  H    0.001837  -0.046740  -0.001095   0.004285  -0.001947  -0.000118
    16  C   -0.000086  -0.091022   0.004019   0.000605   0.272761  -0.038883
    17  H    0.000003   0.004786  -0.000037   0.000016  -0.037029   0.001316
    18  C   -0.000001   0.000462  -0.000100   0.000842  -0.071910  -0.002409
    19  H    0.000002   0.001748  -0.000012   0.001783  -0.003437   0.000575
    20  H    0.000000  -0.000166   0.000001  -0.000046   0.003814   0.000113
    21  H    0.000000   0.000236   0.000002   0.000057  -0.001056   0.001621
    22  C    0.350287  -0.057853   0.000277  -0.004496   0.005058  -0.000070
    23  H   -0.028199   0.003782  -0.000076   0.000021  -0.000137   0.000001
    24  H   -0.023370  -0.004222   0.000000   0.005215  -0.000059  -0.000002
    25  H    0.548901  -0.002682   0.001501   0.000117  -0.000035   0.000000
    26  C   -0.002682   5.422474   0.375010   0.370112   0.264701  -0.031951
    27  H    0.001501   0.375010   0.521045  -0.026146  -0.032971   0.000320
    28  H    0.000117   0.370112  -0.026146   0.528837  -0.043597  -0.003975
    29  C   -0.000035   0.264701  -0.032971  -0.043597   5.425423   0.379852
    30  H    0.000000  -0.031951   0.000320  -0.003975   0.379852   0.512821
    31  H   -0.000002  -0.043335  -0.004049   0.003685   0.370020  -0.027704
             31
     1  C    0.000000
     2  C    0.000000
     3  C    0.000008
     4  C   -0.000153
     5  C   -0.000001
     6  C    0.000000
     7  H    0.000000
     8  H    0.000000
     9  H   -0.000003
    10  H    0.000000
    11  C    0.000000
    12  N    0.000000
    13  N    0.001179
    14  C    0.000962
    15  H    0.002071
    16  C   -0.039220
    17  H   -0.004385
    18  C    0.003540
    19  H    0.000030
    20  H   -0.000089
    21  H    0.000005
    22  C   -0.000058
    23  H    0.000003
    24  H    0.000003
    25  H   -0.000002
    26  C   -0.043335
    27  H   -0.004049
    28  H    0.003685
    29  C    0.370020
    30  H   -0.027704
    31  H    0.534220
 Mulliken atomic charges:
              1
     1  C   -0.003994
     2  C   -0.164110
     3  C   -0.181410
     4  C    0.283888
     5  C   -0.192262
     6  C   -0.163447
     7  H    0.203531
     8  H    0.213270
     9  H    0.198020
    10  H    0.203536
    11  C    0.282999
    12  N   -0.480365
    13  N   -0.639286
    14  C   -0.037424
    15  H    0.186213
    16  C   -0.056139
    17  H    0.202852
    18  C   -0.538831
    19  H    0.198638
    20  H    0.204202
    21  H    0.183450
    22  C   -0.544588
    23  H    0.206345
    24  H    0.203123
    25  H    0.187160
    26  C   -0.374042
    27  H    0.196821
    28  H    0.207575
    29  C   -0.390994
    30  H    0.201995
    31  H    0.203274
 Sum of Mulliken atomic charges =   0.00000
 Mulliken charges with hydrogens summed into heavy atoms:
              1
     1  C   -0.003994
     2  C    0.039421
     3  C    0.031860
     4  C    0.283888
     5  C    0.005759
     6  C    0.040089
    11  C    0.282999
    12  N   -0.480365
    13  N   -0.639286
    14  C    0.148789
    16  C    0.146713
    18  C    0.047458
    22  C    0.052041
    26  C    0.030354
    29  C    0.014275
 Sum of Mulliken charges with hydrogens summed into heavy atoms =   0.00000
 Electronic spatial extent (au):  <R**2>=           3848.3112
 Charge=              0.0000 electrons
 Dipole moment (field-independent basis, Debye):
    X=             -6.1771    Y=             -0.1315    Z=             -0.5029  Tot=              6.1990
 Quadrupole moment (field-independent basis, Debye-Ang):
   XX=           -116.9347   YY=            -83.4484   ZZ=            -90.5718
   XY=              0.3012   XZ=              2.3720   YZ=              3.1032
 Traceless Quadrupole moment (field-independent basis, Debye-Ang):
   XX=            -19.9497   YY=             13.5366   ZZ=              6.4131
   XY=              0.3012   XZ=              2.3720   YZ=              3.1032
 Octapole moment (field-independent basis, Debye-Ang**2):
  XXX=           -239.7958  YYY=             -0.9334  ZZZ=             -0.7237  XYY=              0.4718
  XXY=             -0.8329  XXZ=              4.8588  XZZ=             -5.9091  YZZ=             -0.0371
  YYZ=             -0.5829  XYZ=              7.5088
 Hexadecapole moment (field-independent basis, Debye-Ang**3):
 XXXX=          -5351.4007 YYYY=           -894.8698 ZZZZ=           -320.7531 XXXY=             -4.0352
 XXXZ=             52.4662 YYYX=              4.9844 YYYZ=             14.5264 ZZZX=             -0.9544
 ZZZY=              2.6563 XXYY=           -781.0672 XXZZ=           -718.7484 YYZZ=           -201.4049
 XXYZ=             18.7647 YYXZ=              4.3596 ZZXY=             -0.0706
 N-N= 9.519495406592D+02 E-N=-3.319738754394D+03  KE= 6.066723679388D+02
 1|1|UNPC-DESKTOP-K2VF0AK|SP|RTD-B3LYP-FC|3-21G|C13H16N2|MELIH|17-Dec-2
 024|0||# td b3lyp/3-21g geom=connectivity||Title Card Required||0,1|C,
 0,-2.944956,-0.026826,-0.054892|C,0,-2.250469,-1.187686,0.256075|C,0,-
 0.87095,-1.168774,0.318759|C,0,-0.163466,-0.001719,0.073138|C,0,-0.868
 378,1.156144,-0.237822|C,0,-2.245856,1.148931,-0.301728|H,0,-2.789849,
 -2.093147,0.447006|H,0,-0.32227,-2.054503,0.560504|H,0,-0.333904,2.064
 5,-0.430595|H,0,-2.783346,2.043922,-0.541604|C,0,-4.371757,-0.038946,-
 0.120841|N,0,-5.511092,-0.048305,-0.173548|N,0,1.258591,-0.019683,0.14
 0028|C,0,1.97454698,1.26747267,0.30356657|H,0,1.66730662,1.98762988,-0
 .45344421|C,0,1.98580431,-0.93871545,-0.7834128|H,0,1.40622764,-1.1035
 999,-1.68481564|C,0,2.24029161,-2.27644207,-0.08508332|H,0,2.84110991,
 -2.11657638,0.80179757|H,0,1.30279611,-2.73017568,0.21493728|H,0,2.757
 85207,-2.96345608,-0.74639284|C,0,1.74533426,1.85309998,1.69632591|H,0
 ,0.70109228,2.09977069,1.84743794|H,0,2.03958154,1.12523927,2.44216313
 |H,0,2.33065563,2.75674093,1.82866613|C,0,3.42751427,0.84224944,0.0434
 9456|H,0,4.06235551,1.68224457,-0.20573595|H,0,3.816607,0.35401821,0.9
 2867503|C,0,3.29329678,-0.17147963,-1.11008964|H,0,4.14293628,-0.83643
 138,-1.18660165|H,0,3.18687797,0.36117437,-2.04825976||Version=IA32W-G
 09RevA.02|State=1-A|HF=-611.1503726|RMSD=7.631e-009|PG=C01 [X(C13H16N2
 )]||@


 YOU WILL NEVER "FIND" TIME FOR ANYTHING.
 IF YOU WANT TIME, YOU MUST MAKE IT.

                        -- CHARLES BIXTON
 Job cpu time:  0 days  0 hours  5 minutes 52.0 seconds.
 File lengths (MBytes):  RWF=     64 Int=      0 D2E=      0 Chk=      5 Scr=      1
 Normal termination of Gaussian 09 at Tue Dec 17 22:59:50 2024.
