 Entering Link 1 = C:\G09W\l1.exe PID=     13780.
  
 Copyright (c) 1988,1990,1992,1993,1995,1998,2003,2009, Gaussian, Inc.
                  All Rights Reserved.
  
 This is part of the Gaussian(R) 09 program.  It is based on
 the Gaussian(R) 03 system (copyright 2003, Gaussian, Inc.),
 the Gaussian(R) 98 system (copyright 1998, Gaussian, Inc.),
 the Gaussian(R) 94 system (copyright 1995, Gaussian, Inc.),
 the Gaussian 92(TM) system (copyright 1992, Gaussian, Inc.),
 the Gaussian 90(TM) system (copyright 1990, Gaussian, Inc.),
 the Gaussian 88(TM) system (copyright 1988, Gaussian, Inc.),
 the Gaussian 86(TM) system (copyright 1986, Carnegie Mellon
 University), and the Gaussian 82(TM) system (copyright 1983,
 Carnegie Mellon University). Gaussian is a federally registered
 trademark of Gaussian, Inc.
  
 This software contains proprietary and confidential information,
 including trade secrets, belonging to Gaussian, Inc.
  
 This software is provided under written license and may be
 used, copied, transmitted, or stored only in accord with that
 written license.
  
 The following legend is applicable only to US Government
 contracts under FAR:
  
                    RESTRICTED RIGHTS LEGEND
  
 Use, reproduction and disclosure by the US Government is
 subject to restrictions as set forth in subparagraphs (a)
 and (c) of the Commercial Computer Software - Restricted
 Rights clause in FAR 52.227-19.
  
 Gaussian, Inc.
 340 Quinnipiac St., Bldg. 40, Wallingford CT 06492
  
  
 ---------------------------------------------------------------
 Warning -- This program may not be used in any manner that
 competes with the business of Gaussian, Inc. or will provide
 assistance to any competitor of Gaussian, Inc.  The licensee
 of this program is prohibited from giving any competitor of
 Gaussian, Inc. access to this program.  By using this program,
 the user acknowledges that Gaussian, Inc. is engaged in the
 business of creating and licensing software in the field of
 computational chemistry and represents and warrants to the
 licensee that it is not a competitor of Gaussian, Inc. and that
 it will not use this program in any manner prohibited above.
 ---------------------------------------------------------------
  

 Cite this work as:
 Gaussian 09, Revision A.02,
 M. J. Frisch, G. W. Trucks, H. B. Schlegel, G. E. Scuseria, 
 M. A. Robb, J. R. Cheeseman, G. Scalmani, V. Barone, B. Mennucci, 
 G. A. Petersson, H. Nakatsuji, M. Caricato, X. Li, H. P. Hratchian, 
 A. F. Izmaylov, J. Bloino, G. Zheng, J. L. Sonnenberg, M. Hada, 
 M. Ehara, K. Toyota, R. Fukuda, J. Hasegawa, M. Ishida, T. Nakajima, 
 Y. Honda, O. Kitao, H. Nakai, T. Vreven, J. A. Montgomery, Jr., 
 J. E. Peralta, F. Ogliaro, M. Bearpark, J. J. Heyd, E. Brothers, 
 K. N. Kudin, V. N. Staroverov, R. Kobayashi, J. Normand, 
 K. Raghavachari, A. Rendell, J. C. Burant, S. S. Iyengar, J. Tomasi, 
 M. Cossi, N. Rega, J. M. Millam, M. Klene, J. E. Knox, J. B. Cross, 
 V. Bakken, C. Adamo, J. Jaramillo, R. Gomperts, R. E. Stratmann, 
 O. Yazyev, A. J. Austin, R. Cammi, C. Pomelli, J. W. Ochterski, 
 R. L. Martin, K. Morokuma, V. G. Zakrzewski, G. A. Voth, 
 P. Salvador, J. J. Dannenberg, S. Dapprich, A. D. Daniels, 
 O. Farkas, J. B. Foresman, J. V. Ortiz, J. Cioslowski, 
 and D. J. Fox, Gaussian, Inc., Wallingford CT, 2009.
 
 ******************************************
 Gaussian 09:  IA32W-G09RevA.02 11-Jun-2009
                17-Dec-2024 
 ******************************************
 %chk=C:\G09W\Hw5\energy180.chk
 ----------------------------------
 # td b3lyp/3-21g geom=connectivity
 ----------------------------------
 1/38=1,57=2/1;
 2/12=2,17=6,18=5,40=1/2;
 3/5=5,11=2,16=1,25=1,30=1,74=-5/1,2,8,3;
 4//1;
 5/5=2,38=5/2;
 8/6=1,10=1/1;
 9/42=1/14;
 6/7=2,8=2,9=2,10=2/1;
 99/5=1,9=1/99;
 -------------------
 Title Card Required
 -------------------
 Symbolic Z-matrix:
 Charge =  0 Multiplicity = 1
 C                    -2.94527  -0.04483  -0.06243 
 C                    -2.29373  -0.28262   1.13989 
 C                    -0.91368  -0.26543   1.19023 
 C                    -0.16322  -0.01423   0.05156 
 C                    -0.82529   0.22265  -1.14836 
 C                    -2.20284   0.20927  -1.20974 
 H                    -2.86646  -0.47751   2.02377 
 H                    -0.39771  -0.44346   2.11006 
 H                    -0.25738   0.41728  -2.03579 
 H                    -2.70722   0.39256  -2.13681 
 C                    -4.37233  -0.06044  -0.12171 
 N                    -5.51186  -0.07282  -0.16935 
 N                     1.25787  -0.01042   0.13828 
 C                     2.03417  -0.64094  -0.95531 
 H                     1.69607  -1.65933  -1.14143 
 C                     1.87308  -0.27546   1.4715 
 H                     1.21776  -0.89601   2.0724 
 C                     2.12991   1.04915   2.19357 
 H                     2.80504   1.65974   1.60664 
 H                     1.20224   1.5944    2.32363 
 H                     2.56615   0.87595   3.17177 
 C                     1.93929   0.17775  -2.24218 
 H                     0.92075   0.20612  -2.61083 
 H                     2.26326   1.19194  -2.04442 
 H                     2.56804  -0.25408  -3.01346 
 C                     3.44421  -0.67453  -0.34686 
 H                     4.0895   -1.38527  -0.84605 
 H                     3.88306   0.31327  -0.41732 
 C                     3.1794   -1.03726   1.12783 
 H                     3.99372  -0.75757   1.78247 
 H                     3.01964  -2.10605   1.21367 
 
                          Input orientation:                          
 ---------------------------------------------------------------------
 Center     Atomic      Atomic             Coordinates (Angstroms)
 Number     Number       Type             X           Y           Z
 ---------------------------------------------------------------------
      1          6           0       -2.945266   -0.044825   -0.062433
      2          6           0       -2.293731   -0.282617    1.139886
      3          6           0       -0.913684   -0.265426    1.190233
      4          6           0       -0.163220   -0.014229    0.051556
      5          6           0       -0.825294    0.222653   -1.148356
      6          6           0       -2.202842    0.209273   -1.209738
      7          1           0       -2.866459   -0.477508    2.023765
      8          1           0       -0.397712   -0.443460    2.110060
      9          1           0       -0.257383    0.417280   -2.035785
     10          1           0       -2.707218    0.392561   -2.136807
     11          6           0       -4.372325   -0.060443   -0.121706
     12          7           0       -5.511856   -0.072821   -0.169345
     13          7           0        1.257874   -0.010422    0.138276
     14          6           0        2.034166   -0.640935   -0.955311
     15          1           0        1.696067   -1.659335   -1.141426
     16          6           0        1.873083   -0.275457    1.471497
     17          1           0        1.217761   -0.896011    2.072403
     18          6           0        2.129910    1.049154    2.193568
     19          1           0        2.805041    1.659739    1.606642
     20          1           0        1.202240    1.594400    2.323633
     21          1           0        2.566149    0.875946    3.171771
     22          6           0        1.939287    0.177751   -2.242179
     23          1           0        0.920754    0.206125   -2.610832
     24          1           0        2.263257    1.191936   -2.044418
     25          1           0        2.568036   -0.254081   -3.013463
     26          6           0        3.444210   -0.674533   -0.346863
     27          1           0        4.089499   -1.385269   -0.846049
     28          1           0        3.883059    0.313271   -0.417323
     29          6           0        3.179399   -1.037256    1.127831
     30          1           0        3.993720   -0.757569    1.782475
     31          1           0        3.019639   -2.106048    1.213673
 ---------------------------------------------------------------------
                    Distance matrix (angstroms):
                    1          2          3          4          5
     1  C    0.000000
     2  C    1.388024   0.000000
     3  C    2.396906   1.381072   0.000000
     4  C    2.784548   2.407399   1.386680   0.000000
     5  C    2.396884   2.765439   2.390613   1.390771   0.000000
     6  C    1.389989   2.402280   2.765344   2.408500   1.378980
     7  H    2.132052   1.071094   2.133796   3.378126   3.836526
     8  H    3.371745   2.135883   1.069582   2.115813   3.353179
     9  H    3.366360   3.836855   3.362144   2.133556   1.071417
    10  H    2.133307   3.370986   3.836522   3.380286   2.132497
    11  C    1.428375   2.441625   3.704781   4.212924   3.703456
    12  N    2.568968   3.480578   4.798826   5.353516   4.796835
    13  N    4.208070   3.700163   2.426377   1.423743   2.459540
    14  C    5.093851   4.821714   3.665267   2.497007   2.993253
    15  H    5.031186   4.797730   3.767016   2.754365   3.146297
    16  C    5.061879   4.179995   2.800943   2.496198   3.793809
    17  H    4.755295   3.684619   2.391426   2.601629   3.974767
    18  C    5.660719   4.738403   3.463852   3.313223   4.537047
    19  H    6.225542   5.476138   4.208155   3.745802   4.778553
    20  H    5.057882   4.140804   3.036557   3.100726   4.248210
    21  H    6.456283   5.393446   4.163948   4.240001   5.531020
    22  C    5.353474   5.437714   4.485231   3.117468   2.973445
    23  H    4.637178   4.963836   4.246836   2.883031   2.277673
    24  H    5.708464   5.751542   4.762334   3.425746   3.358807
    25  H    6.256905   6.394364   5.458347   4.112375   3.901357
    26  C    6.426728   5.940369   4.639103   3.688942   4.435764
    27  H    7.204080   6.775353   5.516551   4.557528   5.179961
    28  H    6.846911   6.397868   5.091941   4.086499   4.765628
    29  C    6.317687   5.524923   4.165686   3.657602   4.775559
    30  H    7.215346   6.338023   4.967451   4.563856   5.724815
    31  H    6.438725   5.618029   4.342749   3.982062   5.077947
                    6          7          8          9         10
     6  C    0.000000
     7  H    3.371587   0.000000
     8  H    3.834790   2.470490   0.000000
     9  H    2.123778   4.907940   4.236579   0.000000
    10  H    1.071189   4.253555   4.905979   2.452042   0.000000
    11  C    2.441970   2.654171   4.574389   4.563406   2.653003
    12  N    3.480167   3.460004   5.611375   5.597614   3.457380
    13  N    3.720479   4.558877   2.610827   2.684301   4.589156
    14  C    4.328951   5.737397   3.917847   2.745622   4.994474
    15  H    4.324101   5.677305   4.053939   2.988004   4.958828
    16  C    4.902770   4.775885   2.364846   4.161706   5.869009
    17  H    4.867713   4.105893   1.678086   4.558289   5.897739
    18  C    5.573207   5.227163   2.936621   4.897536   6.525417
    19  H    5.925769   6.075173   3.864518   4.918274   6.782636
    20  H    5.098810   4.575700   2.599679   4.745591   6.051760
    21  H    6.510403   5.715154   3.413581   5.941494   7.498204
    22  C    4.268976   6.459321   4.978900   2.219308   4.652661
    23  H    3.423437   6.024104   4.944405   1.327882   3.663556
    24  H    4.648479   6.756563   5.197592   2.637004   5.035193
    25  H    5.121464   7.413320   5.923007   3.064240   5.386556
    26  C    5.780559   6.744127   4.566205   4.212636   6.494818
    27  H    6.501414   7.579262   5.455332   4.853868   7.142976
    28  H    6.138153   7.220819   5.028449   4.446739   6.811363
    29  C    5.998882   6.137460   3.756739   4.892403   6.881461
    30  H    6.948777   6.870132   4.414821   5.833631   7.847684
    31  H    6.205477   6.160726   3.904612   5.259756   7.089828
                   11         12         13         14         15
    11  C    0.000000
    12  N    1.140593   0.000000
    13  N    5.636421   6.777003   0.000000
    14  C    6.486524   7.608083   1.481927   0.000000
    15  H    6.357804   7.444200   2.132736   1.089076   0.000000
    16  C    6.449004   7.567743   1.492047   2.459455   2.962064
    17  H    6.063114   7.140785   2.127610   3.146209   3.337685
    18  C    6.990763   8.077052   2.471310   3.575053   4.318138
    19  H    7.580290   8.679093   2.709107   3.528591   4.449489
    20  H    6.308246   7.353478   2.711888   4.054664   4.778838
    21  H    7.737328   8.793030   3.420427   4.429079   5.078224
    22  C    6.662551   7.738149   2.483203   1.528162   2.155388
    23  H    5.855211   6.886010   2.778154   2.167475   2.498040
    24  H    7.021127   8.097400   2.687120   2.144308   3.044149
    25  H    7.521195   8.567760   3.421893   2.161172   2.497917
    26  C    7.843853   8.978011   2.335909   1.536087   2.158048
    27  H    8.595482   9.714240   3.298060   2.188691   2.427113
    28  H    8.269124   9.406114   2.702788   2.149034   3.032892
    29  C    7.716479   8.840289   2.392878   2.410002   2.781507
    30  H    8.608287   9.728024   3.278181   3.368817   3.826433
    31  H    7.785171   8.878804   2.941419   2.796821   2.738227
                   16         17         18         19         20
    16  C    0.000000
    17  H    1.084261   0.000000
    18  C    1.530340   2.151828   0.000000
    19  H    2.152160   3.044380   1.083096   0.000000
    20  H    2.161604   2.503099   1.083874   1.757076   0.000000
    21  H    2.167256   2.483262   1.084983   1.766643   1.759479
    22  C    3.741814   4.504352   4.524547   4.214171   4.837020
    23  H    4.219510   4.820333   5.025437   4.842585   5.133760
    24  H    3.829770   4.732949   4.242487   3.720566   4.513048
    25  H    4.538533   5.301071   5.385494   5.006421   5.810927
    26  C    2.436009   3.295297   3.339502   3.110232   4.160053
    27  H    3.393406   4.123545   4.359550   4.115532   5.221262
    28  H    2.820327   3.842514   3.229830   2.659236   4.042391
    29  C    1.550776   2.181786   2.567164   2.764631   3.502102
    30  H    2.196871   2.794490   2.628124   2.699491   3.690119
    31  H    2.175346   2.334175   3.421566   3.792312   4.269458
                   21         22         23         24         25
    21  H    0.000000
    22  C    5.494659   0.000000
    23  H    6.049338   1.083569   0.000000
    24  H    5.234522   1.082884   1.759251   0.000000
    25  H    6.287613   1.084751   1.757111   1.767174   0.000000
    26  C    3.944079   2.565814   3.502706   2.785687   2.838171
    27  H    4.855571   3.002602   3.960801   3.378348   2.879604
    28  H    3.864253   2.669590   3.687575   2.458302   2.964981
    29  C    2.866026   3.790922   4.541484   3.983940   4.258808
    30  H    2.576135   4.614472   5.447291   4.630355   5.028628
    31  H    3.596121   4.280866   4.937439   4.697231   4.637069
                   26         27         28         29         30
    26  C    0.000000
    27  H    1.082003   0.000000
    28  H    1.083194   1.763934   0.000000
    29  C    1.541563   2.201272   2.169462   0.000000
    30  H    2.200667   2.704130   2.449093   1.081620   0.000000
    31  H    2.159808   2.430346   3.042820   1.084070   1.758057
                   31
    31  H    0.000000
 Stoichiometry    C13H16N2
 Framework group  C1[X(C13H16N2)]
 Deg. of freedom    87
 Full point group                 C1      NOp   1
 Largest Abelian subgroup         C1      NOp   1
 Largest concise Abelian subgroup C1      NOp   1
                         Standard orientation:                         
 ---------------------------------------------------------------------
 Center     Atomic      Atomic             Coordinates (Angstroms)
 Number     Number       Type             X           Y           Z
 ---------------------------------------------------------------------
      1          6           0       -2.944059   -0.047353   -0.048951
      2          6           0       -2.208439   -1.200014   -0.287377
      3          6           0       -0.829641   -1.163670   -0.216982
      4          6           0       -0.163578    0.013549    0.088626
      5          6           0       -0.909519    1.163168    0.325674
      6          6           0       -2.286675    1.137897    0.259429
      7          1           0       -2.715683   -2.113196   -0.524117
      8          1           0       -0.249536   -2.044499   -0.394815
      9          1           0       -0.407295    2.079594    0.562040
     10          1           0       -2.855878    2.026553    0.443126
     11          6           0       -4.370370   -0.077793   -0.119428
     12          7           0       -5.509325   -0.101795   -0.175604
     13          7           0        1.258986    0.016519    0.146463
     14          6           0        1.987095    1.171998   -0.428718
     15          1           0        1.676616    1.361343   -1.455285
     16          6           0        1.967782   -1.268368   -0.123495
     17          1           0        1.376207   -1.893994   -0.782474
     18          6           0        2.219882   -2.005072    1.193947
     19          1           0        2.832483   -1.391901    1.843438
     20          1           0        1.282435   -2.206688    1.699246
     21          1           0        2.724024   -2.949288    1.016508
     22          6           0        1.779177    2.429864    0.413790
     23          1           0        0.738814    2.732770    0.410169
     24          1           0        2.076470    2.228114    1.435333
     25          1           0        2.373232    3.249606    0.024168
     26          6           0        3.433418    0.654656   -0.420193
     27          1           0        4.071932    1.210804   -1.093787
     28          1           0        3.829120    0.728400    0.585436
     29          6           0        3.277374   -0.824461   -0.825508
     30          1           0        4.120705   -1.433128   -0.528490
     31          1           0        3.164040   -0.893972   -1.901394
 ---------------------------------------------------------------------
 Rotational constants (GHZ):      1.4219572      0.3279324      0.2829800
 Standard basis: 3-21G (6D, 7F)
 There are   167 symmetry adapted basis functions of A   symmetry.
 Integral buffers will be    262144 words long.
 Raffenetti 2 integral format.
 Two-electron integral symmetry is turned on.
   167 basis functions,   273 primitive gaussians,   167 cartesian basis functions
    54 alpha electrons       54 beta electrons
       nuclear repulsion energy       953.5183678903 Hartrees.
 NAtoms=   31 NActive=   31 NUniq=   31 SFac= 7.50D-01 NAtFMM=   80 NAOKFM=F Big=F
 One-electron integrals computed using PRISM.
 NBasis=   167 RedAO= T  NBF=   167
 NBsUse=   167 1.00D-06 NBFU=   167
 Harris functional with IExCor=  402 diagonalized for initial guess.
 ExpMin= 1.83D-01 ExpMax= 2.43D+02 ExpMxC= 2.43D+02 IAcc=1 IRadAn=         1 AccDes= 0.00D+00
 HarFok:  IExCor=  402 AccDes= 0.00D+00 IRadAn=         1 IDoV= 1
 ScaDFX=  1.000000  1.000000  1.000000  1.000000
 FoFCou: FMM=F IPFlag=           0 FMFlag=      100000 FMFlg1=           0
         NFxFlg=           0 DoJE=T BraDBF=F KetDBF=T FulRan=T
         Omega=  0.000000  0.000000  1.000000  0.000000  0.000000 ICntrl=     500 IOpCl=  0
         NMat0=    1 NMatS0=    1 NMatT0=    0 NMatD0=    1 NMtDS0=    0 NMtDT0=    0
         I1Cent=           4 NGrid=           0.
 Petite list used in FoFCou.
 Initial guess orbital symmetries:
       Occupied  (A) (A) (A) (A) (A) (A) (A) (A) (A) (A) (A) (A)
                 (A) (A) (A) (A) (A) (A) (A) (A) (A) (A) (A) (A)
                 (A) (A) (A) (A) (A) (A) (A) (A) (A) (A) (A) (A)
                 (A) (A) (A) (A) (A) (A) (A) (A) (A) (A) (A) (A)
                 (A) (A) (A) (A) (A) (A)
       Virtual   (A) (A) (A) (A) (A) (A) (A) (A) (A) (A) (A) (A)
                 (A) (A) (A) (A) (A) (A) (A) (A) (A) (A) (A) (A)
                 (A) (A) (A) (A) (A) (A) (A) (A) (A) (A) (A) (A)
                 (A) (A) (A) (A) (A) (A) (A) (A) (A) (A) (A) (A)
                 (A) (A) (A) (A) (A) (A) (A) (A) (A) (A) (A) (A)
                 (A) (A) (A) (A) (A) (A) (A) (A) (A) (A) (A) (A)
                 (A) (A) (A) (A) (A) (A) (A) (A) (A) (A) (A) (A)
                 (A) (A) (A) (A) (A) (A) (A) (A) (A) (A) (A) (A)
                 (A) (A) (A) (A) (A) (A) (A) (A) (A) (A) (A) (A)
                 (A) (A) (A) (A) (A)
 The electronic state of the initial guess is 1-A.
 Requested convergence on RMS density matrix=1.00D-08 within 128 cycles.
 Requested convergence on MAX density matrix=1.00D-06.
 Requested convergence on             energy=1.00D-06.
 No special actions if energy rises.
 Integral accuracy reduced to 1.0D-05 until final iterations.
 Initial convergence to 1.0D-05 achieved.  Increase integral accuracy.
 SCF Done:  E(RB3LYP) =  -611.134705387     A.U. after   16 cycles
             Convg  =    0.3850D-08             -V/T =  2.0072
 ExpMin= 1.83D-01 ExpMax= 2.43D+02 ExpMxC= 2.43D+02 IAcc=1 IRadAn=         1 AccDes= 0.00D+00
 HarFok:  IExCor=  205 AccDes= 0.00D+00 IRadAn=         1 IDoV=-2
 ScaDFX=  1.000000  1.000000  1.000000  1.000000
 Range of M.O.s used for correlation:    16   167
 NBasis=   167 NAE=    54 NBE=    54 NFC=    15 NFV=     0
 NROrb=    152 NOA=    39 NOB=    39 NVA=   113 NVB=   113
 Would need an additional   268100000 words for in-memory AO integral storage.
 Orbital symmetries:
       Occupied  (A) (A) (A) (A) (A) (A) (A) (A) (A) (A) (A) (A)
                 (A) (A) (A) (A) (A) (A) (A) (A) (A) (A) (A) (A)
                 (A) (A) (A) (A) (A) (A) (A) (A) (A) (A) (A) (A)
                 (A) (A) (A) (A) (A) (A) (A) (A) (A) (A) (A) (A)
                 (A) (A) (A) (A) (A) (A)
       Virtual   (A) (A) (A) (A) (A) (A) (A) (A) (A) (A) (A) (A)
                 (A) (A) (A) (A) (A) (A) (A) (A) (A) (A) (A) (A)
                 (A) (A) (A) (A) (A) (A) (A) (A) (A) (A) (A) (A)
                 (A) (A) (A) (A) (A) (A) (A) (A) (A) (A) (A) (A)
                 (A) (A) (A) (A) (A) (A) (A) (A) (A) (A) (A) (A)
                 (A) (A) (A) (A) (A) (A) (A) (A) (A) (A) (A) (A)
                 (A) (A) (A) (A) (A) (A) (A) (A) (A) (A) (A) (A)
                 (A) (A) (A) (A) (A) (A) (A) (A) (A) (A) (A) (A)
                 (A) (A) (A) (A) (A) (A) (A) (A) (A) (A) (A) (A)
                 (A) (A) (A) (A) (A)
    12 initial guesses have been made.
 Convergence on wavefunction:    0.001000000000000
 Iteration     1 Dimension    12 NMult    12
 CISAX will form    12 AO SS matrices at one time.
 New state      1 was old state      2
 New state      2 was old state      1
 Iteration     2 Dimension    18 NMult    18
 Iteration     3 Dimension    24 NMult    24
 Iteration     4 Dimension    30 NMult    30
 Iteration     5 Dimension    36 NMult    36
 Iteration     6 Dimension    38 NMult    38
 ***********************************************************************
 Excited states from <AA,BB:AA,BB> singles matrix:
 ***********************************************************************
 
 Ground to excited state transition electric dipole moments (Au):
       state          X           Y           Z        Dip. S.      Osc.
         1         0.2835     -0.3523     -0.1066      0.2159      0.0243
         2         1.9454      0.0570      0.0337      3.7890      0.4430
         3         0.1383      0.4269      0.1147      0.2145      0.0317
 Ground to excited state transition velocity dipole moments (Au):
       state          X           Y           Z        Dip. S.      Osc.
         1        -0.0407      0.0516      0.0203      0.0047      0.0187
         2        -0.2783     -0.0106      0.0016      0.0776      0.2950
         3        -0.0240     -0.0782     -0.0220      0.0072      0.0216
 Ground to excited state transition magnetic dipole moments (Au):
       state          X           Y           Z
         1         0.0146      0.1336     -0.7630
         2        -0.0722     -0.0823      0.0833
         3        -0.0180     -0.0993      0.4560
 <0|del|b> * <b|rxdel|0> + <0|del|b> * <b|delr+rdel|0>
 Rotatory Strengths (R) in cgs (10**-40 erg-esu-cm/Gauss)
       state          XX          YY          ZZ    R(velocity)
         1       -22.9690    -29.1663     13.6598    -12.8252
 Total R(velocity) tensor for State=          1
                 1             2             3 
      1  -0.229690D+02  0.361899D+01 -0.552988D+02
      2  -0.350249D+01 -0.291663D+02  0.671650D+02
      3  -0.159362D+00 -0.549552D+01  0.136598D+02
 R(velocity) tensor in inp. orien. for State=          1
                 1             2             3 
      1  -0.249538D+02 -0.494844D+02 -0.191818D+01
      2   0.103997D+01  0.141701D+02  0.464067D+01
      3   0.109111D+01 -0.715752D+02 -0.276918D+02
         2         3.9386      2.5205     78.5986     28.3526
 Total R(velocity) tensor for State=          2
                 1             2             3 
      1   0.393862D+01 -0.956706D+02  0.479461D+02
      2  -0.985543D+00  0.252050D+01 -0.152698D+03
      3  -0.191003D+01  0.618999D+02  0.785986D+02
 R(velocity) tensor in inp. orien. for State=          2
                 1             2             3 
      1  -0.445568D+00  0.433717D+02  0.919292D+02
      2   0.526235D+01  0.788374D+02 -0.671549D+02
      3   0.669376D+01  0.153720D+03  0.666585D+01
         3        -7.4403     -5.9918      7.5192     -1.9710
 Total R(velocity) tensor for State=          3
                 1             2             3 
      1  -0.744028D+01 -0.159073D+01  0.137637D+02
      2   0.502824D+00 -0.599182D+01  0.207092D+02
      3  -0.385426D+01 -0.933749D+00  0.751919D+01
 R(velocity) tensor in inp. orien. for State=          3
                 1             2             3 
      1  -0.704160D+01  0.156463D+02  0.117598D+01
      2  -0.336140D+01  0.662914D+01  0.351983D+00
      3  -0.130349D+01 -0.200380D+02 -0.550045D+01
 1/2[<0|r|b>*<b|rxdel|0> + (<0|rxdel|b>*<b|r|0>)*]
 Rotatory Strengths (R) in cgs (10**-40 erg-esu-cm/Gauss)
       state          XX          YY          ZZ     R(length)     R(au)
         1        -2.9327     33.2769    -57.5123     -9.0560     -0.0192
         2        99.2616      3.3149     -1.9837     33.5309      0.0711
         3         1.7608     29.9748    -37.0045     -1.7563     -0.0037
  1/2[<0|del|b>*<b|r|0> + (<0|r|b>*<b|del|0>)*] (Au)
       state          X           Y           Z        Dip. S.   Osc.(frdel)
         1        -0.0115     -0.0182     -0.0022      0.0319      0.0213
         2        -0.5415     -0.0006      0.0001      0.5420      0.3614
         3        -0.0033     -0.0334     -0.0025      0.0392      0.0261
 Ground to excited state transition densities written to RWF  633

 Excitation energies and oscillator strengths:
 
 Excited State   1:      Singlet-A      4.5960 eV  269.77 nm  f=0.0243  <S**2>=0.000
      53 -> 55         0.18093
      54 -> 55         0.15941
      54 -> 56         0.66238
 This state for optimization and/or second-order correction.
 Copying the excited state density for this state as the 1-particle RhoCI density.
 
 Excited State   2:      Singlet-A      4.7721 eV  259.81 nm  f=0.4430  <S**2>=0.000
      54 -> 55         0.67572
      54 -> 56        -0.15530
 
 Excited State   3:      Singlet-A      6.0312 eV  205.57 nm  f=0.0317  <S**2>=0.000
      52 -> 56        -0.41378
      53 -> 55         0.55229
      54 -> 56        -0.13584
 SavETr:  write IOETrn=   770 NScale= 10 NData=  16 NLR=1 LETran=      62.

 **********************************************************************

            Population analysis using the SCF density.

 **********************************************************************

 Orbital symmetries:
       Occupied  (A) (A) (A) (A) (A) (A) (A) (A) (A) (A) (A) (A)
                 (A) (A) (A) (A) (A) (A) (A) (A) (A) (A) (A) (A)
                 (A) (A) (A) (A) (A) (A) (A) (A) (A) (A) (A) (A)
                 (A) (A) (A) (A) (A) (A) (A) (A) (A) (A) (A) (A)
                 (A) (A) (A) (A) (A) (A)
       Virtual   (A) (A) (A) (A) (A) (A) (A) (A) (A) (A) (A) (A)
                 (A) (A) (A) (A) (A) (A) (A) (A) (A) (A) (A) (A)
                 (A) (A) (A) (A) (A) (A) (A) (A) (A) (A) (A) (A)
                 (A) (A) (A) (A) (A) (A) (A) (A) (A) (A) (A) (A)
                 (A) (A) (A) (A) (A) (A) (A) (A) (A) (A) (A) (A)
                 (A) (A) (A) (A) (A) (A) (A) (A) (A) (A) (A) (A)
                 (A) (A) (A) (A) (A) (A) (A) (A) (A) (A) (A) (A)
                 (A) (A) (A) (A) (A) (A) (A) (A) (A) (A) (A) (A)
                 (A) (A) (A) (A) (A) (A) (A) (A) (A) (A) (A) (A)
                 (A) (A) (A) (A) (A)
 The electronic state is 1-A.
 Alpha  occ. eigenvalues --  -14.27253 -14.23439 -10.17881 -10.16907 -10.16706
 Alpha  occ. eigenvalues --  -10.15769 -10.14589 -10.14308 -10.14229 -10.13107
 Alpha  occ. eigenvalues --  -10.13081 -10.13003 -10.12882 -10.11703 -10.11331
 Alpha  occ. eigenvalues --   -0.96370  -0.92306  -0.87976  -0.81465  -0.79886
 Alpha  occ. eigenvalues --   -0.76624  -0.75563  -0.72698  -0.66184  -0.64904
 Alpha  occ. eigenvalues --   -0.64190  -0.59226  -0.57871  -0.57029  -0.53573
 Alpha  occ. eigenvalues --   -0.50087  -0.48759  -0.47499  -0.46867  -0.45189
 Alpha  occ. eigenvalues --   -0.43900  -0.42891  -0.41860  -0.40713  -0.40549
 Alpha  occ. eigenvalues --   -0.39577  -0.38787  -0.38063  -0.37782  -0.35634
 Alpha  occ. eigenvalues --   -0.34894  -0.34278  -0.33859  -0.33591  -0.33107
 Alpha  occ. eigenvalues --   -0.32279  -0.28195  -0.26860  -0.20520
 Alpha virt. eigenvalues --   -0.02064  -0.00837   0.06490   0.09241   0.10170
 Alpha virt. eigenvalues --    0.10715   0.11999   0.12580   0.13299   0.14923
 Alpha virt. eigenvalues --    0.15588   0.16073   0.17803   0.18089   0.18446
 Alpha virt. eigenvalues --    0.18672   0.19723   0.20149   0.20716   0.21024
 Alpha virt. eigenvalues --    0.22177   0.23277   0.23966   0.25296   0.26263
 Alpha virt. eigenvalues --    0.27144   0.28779   0.29955   0.31301   0.34885
 Alpha virt. eigenvalues --    0.37004   0.37862   0.39431   0.41141   0.52065
 Alpha virt. eigenvalues --    0.55218   0.60537   0.63856   0.66159   0.66682
 Alpha virt. eigenvalues --    0.67378   0.68705   0.69721   0.70498   0.70817
 Alpha virt. eigenvalues --    0.71643   0.72764   0.74565   0.75342   0.75624
 Alpha virt. eigenvalues --    0.77139   0.77496   0.78430   0.78902   0.79470
 Alpha virt. eigenvalues --    0.80135   0.81310   0.83808   0.86576   0.88054
 Alpha virt. eigenvalues --    0.89566   0.90254   0.93351   0.94031   0.94652
 Alpha virt. eigenvalues --    0.95984   0.96807   0.99585   1.00769   1.01435
 Alpha virt. eigenvalues --    1.02437   1.04867   1.05742   1.07272   1.07994
 Alpha virt. eigenvalues --    1.08889   1.09945   1.11103   1.12173   1.13841
 Alpha virt. eigenvalues --    1.15571   1.16546   1.17249   1.20925   1.21539
 Alpha virt. eigenvalues --    1.22404   1.25527   1.27672   1.29887   1.31905
 Alpha virt. eigenvalues --    1.35315   1.38133   1.39917   1.41969   1.50803
 Alpha virt. eigenvalues --    1.52390   1.53376   1.54563   1.55314   1.62705
 Alpha virt. eigenvalues --    1.74864   1.78757   1.79565   1.87415   1.91935
 Alpha virt. eigenvalues --    1.98475   2.01688   2.20468   2.32865   2.42961
 Alpha virt. eigenvalues --    2.51879   3.00769   3.04591
          Condensed to atoms (all electrons):
              1          2          3          4          5          6
     1  C    5.444051   0.452109  -0.086272  -0.031554  -0.088062   0.445253
     2  C    0.452109   5.126723   0.438224  -0.058005  -0.032383  -0.054855
     3  C   -0.086272   0.438224   5.257300   0.399050  -0.063758  -0.034480
     4  C   -0.031554  -0.058005   0.399050   4.966812   0.413487  -0.058929
     5  C   -0.088062  -0.032383  -0.063758   0.413487   5.259574   0.455856
     6  C    0.445253  -0.054855  -0.034480  -0.058929   0.455856   5.117709
     7  H   -0.042879   0.396805  -0.035202   0.004008  -0.000181   0.003815
     8  H    0.004358  -0.036471   0.388301  -0.054138   0.004308  -0.000172
     9  H    0.004487  -0.000186   0.004518  -0.055769   0.370235  -0.035743
    10  H   -0.043233   0.003791  -0.000171   0.004147  -0.035086   0.397418
    11  C    0.067848  -0.077143   0.004623  -0.000075   0.004554  -0.076312
    12  N   -0.118894  -0.000707  -0.000006   0.000001  -0.000007  -0.000678
    13  N   -0.000368   0.004859  -0.055997   0.288268  -0.057023   0.003935
    14  C    0.000012  -0.000108   0.000826  -0.062156   0.000188   0.000119
    15  H   -0.000009  -0.000023   0.001049  -0.001229   0.002422  -0.000014
    16  C   -0.000008   0.000760  -0.014289  -0.065093   0.002171  -0.000115
    17  H   -0.000009  -0.000246  -0.002290  -0.003700   0.000114  -0.000004
    18  C   -0.000001  -0.000019  -0.000946   0.000202  -0.000049   0.000004
    19  H    0.000000   0.000000  -0.000049   0.000138  -0.000003   0.000000
    20  H    0.000000  -0.000023   0.001887   0.001605  -0.000020  -0.000003
    21  H    0.000000  -0.000001  -0.000073  -0.000041  -0.000001   0.000000
    22  C   -0.000019   0.000006  -0.000197  -0.000769  -0.032644   0.000552
    23  H   -0.000016  -0.000001  -0.000068   0.000313  -0.013249   0.000689
    24  H    0.000001   0.000000   0.000011   0.000461   0.000156  -0.000019
    25  H    0.000000   0.000000   0.000004   0.000018   0.000665  -0.000008
    26  C    0.000000   0.000001  -0.000142   0.004921  -0.000084   0.000001
    27  H    0.000000   0.000000   0.000002  -0.000074   0.000003   0.000000
    28  H    0.000000   0.000000   0.000001  -0.000127  -0.000002   0.000000
    29  C    0.000000  -0.000008   0.000267   0.004659  -0.000075   0.000001
    30  H    0.000000   0.000000   0.000000  -0.000065   0.000001   0.000000
    31  H    0.000000   0.000000   0.000031  -0.000157   0.000001   0.000000
              7          8          9         10         11         12
     1  C   -0.042879   0.004358   0.004487  -0.043233   0.067848  -0.118894
     2  C    0.396805  -0.036471  -0.000186   0.003791  -0.077143  -0.000707
     3  C   -0.035202   0.388301   0.004518  -0.000171   0.004623  -0.000006
     4  C    0.004008  -0.054138  -0.055769   0.004147  -0.000075   0.000001
     5  C   -0.000181   0.004308   0.370235  -0.035086   0.004554  -0.000007
     6  C    0.003815  -0.000172  -0.035743   0.397418  -0.076312  -0.000678
     7  H    0.481864  -0.003828   0.000002  -0.000053  -0.006267  -0.000092
     8  H   -0.003828   0.495137  -0.000044   0.000002  -0.000080   0.000000
     9  H    0.000002  -0.000044   0.490979  -0.003944  -0.000097   0.000000
    10  H   -0.000053   0.000002  -0.003944   0.481843  -0.006063  -0.000085
    11  C   -0.006267  -0.000080  -0.000097  -0.006063   4.958821   0.850057
    12  N   -0.000092   0.000000   0.000000  -0.000085   0.850057   6.753716
    13  N   -0.000018  -0.009572  -0.006660  -0.000014   0.000000   0.000000
    14  C    0.000001   0.000024  -0.000799  -0.000002   0.000000   0.000000
    15  H    0.000000   0.000022   0.000157   0.000000   0.000000   0.000000
    16  C    0.000001   0.000440  -0.000015   0.000000   0.000000   0.000000
    17  H    0.000011   0.011575   0.000005   0.000000   0.000000   0.000000
    18  C    0.000000  -0.000871  -0.000006   0.000000   0.000000   0.000000
    19  H    0.000000  -0.000010   0.000001   0.000000   0.000000   0.000000
    20  H   -0.000002   0.001056   0.000000   0.000000   0.000000   0.000000
    21  H    0.000000   0.000165   0.000000   0.000000   0.000000   0.000000
    22  C    0.000000  -0.000003  -0.005940   0.000027   0.000000   0.000000
    23  H    0.000000  -0.000001   0.022653   0.000015   0.000000   0.000000
    24  H    0.000000   0.000000   0.000713  -0.000001   0.000000   0.000000
    25  H    0.000000   0.000000   0.000466   0.000000   0.000000   0.000000
    26  C    0.000000   0.000001   0.000003   0.000000   0.000000   0.000000
    27  H    0.000000   0.000000   0.000002   0.000000   0.000000   0.000000
    28  H    0.000000  -0.000001  -0.000006   0.000000   0.000000   0.000000
    29  C    0.000000   0.000078  -0.000009   0.000000   0.000000   0.000000
    30  H    0.000000   0.000003   0.000000   0.000000   0.000000   0.000000
    31  H    0.000000  -0.000039   0.000000   0.000000   0.000000   0.000000
             13         14         15         16         17         18
     1  C   -0.000368   0.000012  -0.000009  -0.000008  -0.000009  -0.000001
     2  C    0.004859  -0.000108  -0.000023   0.000760  -0.000246  -0.000019
     3  C   -0.055997   0.000826   0.001049  -0.014289  -0.002290  -0.000946
     4  C    0.288268  -0.062156  -0.001229  -0.065093  -0.003700   0.000202
     5  C   -0.057023   0.000188   0.002422   0.002171   0.000114  -0.000049
     6  C    0.003935   0.000119  -0.000014  -0.000115  -0.000004   0.000004
     7  H   -0.000018   0.000001   0.000000   0.000001   0.000011   0.000000
     8  H   -0.009572   0.000024   0.000022   0.000440   0.011575  -0.000871
     9  H   -0.006660  -0.000799   0.000157  -0.000015   0.000005  -0.000006
    10  H   -0.000014  -0.000002   0.000000   0.000000   0.000000   0.000000
    11  C    0.000000   0.000000   0.000000   0.000000   0.000000   0.000000
    12  N    0.000000   0.000000   0.000000   0.000000   0.000000   0.000000
    13  N    7.276987   0.262494  -0.046642   0.259300  -0.041719  -0.062435
    14  C    0.262494   5.307847   0.356839  -0.079603   0.001290   0.004344
    15  H   -0.046642   0.356839   0.589835   0.000838   0.001001  -0.000219
    16  C    0.259300  -0.079603   0.000838   5.324455   0.360837   0.272775
    17  H   -0.041719   0.001290   0.001001   0.360837   0.563576  -0.063230
    18  C   -0.062435   0.004344  -0.000219   0.272775  -0.063230   5.374104
    19  H    0.001498   0.000215   0.000020  -0.042368   0.004051   0.366740
    20  H   -0.001728  -0.000024  -0.000001  -0.038000  -0.002891   0.367107
    21  H    0.003052  -0.000113   0.000008  -0.038456   0.001857   0.342238
    22  C   -0.059206   0.280298  -0.060200   0.004569  -0.000145  -0.000094
    23  H   -0.001059  -0.043804  -0.002376  -0.000064  -0.000003   0.000005
    24  H    0.003772  -0.041454   0.004631   0.000012   0.000009  -0.000041
    25  H    0.002718  -0.037743   0.001866  -0.000090   0.000003   0.000000
    26  C   -0.071072   0.269512  -0.047315  -0.091111   0.004558   0.001186
    27  H    0.002627  -0.036622  -0.001091   0.004012  -0.000039  -0.000100
    28  H    0.001526  -0.046870   0.004222   0.000583   0.000037   0.000851
    29  C   -0.051445  -0.089617  -0.001892   0.269536  -0.035300  -0.073186
    30  H    0.002283   0.004306  -0.000119  -0.038893   0.001191  -0.002225
    31  H    0.001254   0.000692   0.002050  -0.040076  -0.003739   0.003465
             19         20         21         22         23         24
     1  C    0.000000   0.000000   0.000000  -0.000019  -0.000016   0.000001
     2  C    0.000000  -0.000023  -0.000001   0.000006  -0.000001   0.000000
     3  C   -0.000049   0.001887  -0.000073  -0.000197  -0.000068   0.000011
     4  C    0.000138   0.001605  -0.000041  -0.000769   0.000313   0.000461
     5  C   -0.000003  -0.000020  -0.000001  -0.032644  -0.013249   0.000156
     6  C    0.000000  -0.000003   0.000000   0.000552   0.000689  -0.000019
     7  H    0.000000  -0.000002   0.000000   0.000000   0.000000   0.000000
     8  H   -0.000010   0.001056   0.000165  -0.000003  -0.000001   0.000000
     9  H    0.000001   0.000000   0.000000  -0.005940   0.022653   0.000713
    10  H    0.000000   0.000000   0.000000   0.000027   0.000015  -0.000001
    11  C    0.000000   0.000000   0.000000   0.000000   0.000000   0.000000
    12  N    0.000000   0.000000   0.000000   0.000000   0.000000   0.000000
    13  N    0.001498  -0.001728   0.003052  -0.059206  -0.001059   0.003772
    14  C    0.000215  -0.000024  -0.000113   0.280298  -0.043804  -0.041454
    15  H    0.000020  -0.000001   0.000008  -0.060200  -0.002376   0.004631
    16  C   -0.042368  -0.038000  -0.038456   0.004569  -0.000064   0.000012
    17  H    0.004051  -0.002891   0.001857  -0.000145  -0.000003   0.000009
    18  C    0.366740   0.367107   0.342238  -0.000094   0.000005  -0.000041
    19  H    0.519593  -0.025909  -0.024704  -0.000085  -0.000001   0.000090
    20  H   -0.025909   0.514605  -0.026891   0.000001   0.000000   0.000001
    21  H   -0.024704  -0.026891   0.559874  -0.000001   0.000000   0.000002
    22  C   -0.000085   0.000001  -0.000001   5.438436   0.346388   0.356640
    23  H   -0.000001   0.000000   0.000000   0.346388   0.528817  -0.029988
    24  H    0.000090   0.000001   0.000002   0.356640  -0.029988   0.520993
    25  H    0.000002   0.000000   0.000000   0.343898  -0.024635  -0.021269
    26  C    0.001579  -0.000180   0.000193  -0.055493   0.003903  -0.004605
    27  H   -0.000015   0.000001   0.000002   0.000210  -0.000075   0.000031
    28  H    0.001774  -0.000041   0.000057  -0.004275   0.000073   0.005301
    29  C   -0.003342   0.003790  -0.000904   0.004905  -0.000148  -0.000051
    30  H    0.000570   0.000096   0.001531  -0.000070   0.000001  -0.000003
    31  H    0.000030  -0.000084   0.000008  -0.000054   0.000003   0.000003
             25         26         27         28         29         30
     1  C    0.000000   0.000000   0.000000   0.000000   0.000000   0.000000
     2  C    0.000000   0.000001   0.000000   0.000000  -0.000008   0.000000
     3  C    0.000004  -0.000142   0.000002   0.000001   0.000267   0.000000
     4  C    0.000018   0.004921  -0.000074  -0.000127   0.004659  -0.000065
     5  C    0.000665  -0.000084   0.000003  -0.000002  -0.000075   0.000001
     6  C   -0.000008   0.000001   0.000000   0.000000   0.000001   0.000000
     7  H    0.000000   0.000000   0.000000   0.000000   0.000000   0.000000
     8  H    0.000000   0.000001   0.000000  -0.000001   0.000078   0.000003
     9  H    0.000466   0.000003   0.000002  -0.000006  -0.000009   0.000000
    10  H    0.000000   0.000000   0.000000   0.000000   0.000000   0.000000
    11  C    0.000000   0.000000   0.000000   0.000000   0.000000   0.000000
    12  N    0.000000   0.000000   0.000000   0.000000   0.000000   0.000000
    13  N    0.002718  -0.071072   0.002627   0.001526  -0.051445   0.002283
    14  C   -0.037743   0.269512  -0.036622  -0.046870  -0.089617   0.004306
    15  H    0.001866  -0.047315  -0.001091   0.004222  -0.001892  -0.000119
    16  C   -0.000090  -0.091111   0.004012   0.000583   0.269536  -0.038893
    17  H    0.000003   0.004558  -0.000039   0.000037  -0.035300   0.001191
    18  C    0.000000   0.001186  -0.000100   0.000851  -0.073186  -0.002225
    19  H    0.000002   0.001579  -0.000015   0.001774  -0.003342   0.000570
    20  H    0.000000  -0.000180   0.000001  -0.000041   0.003790   0.000096
    21  H    0.000000   0.000193   0.000002   0.000057  -0.000904   0.001531
    22  C    0.343898  -0.055493   0.000210  -0.004275   0.004905  -0.000070
    23  H   -0.024635   0.003903  -0.000075   0.000073  -0.000148   0.000001
    24  H   -0.021269  -0.004605   0.000031   0.005301  -0.000051  -0.000003
    25  H    0.542859  -0.003149   0.001603   0.000173  -0.000021  -0.000001
    26  C   -0.003149   5.422681   0.374310   0.369824   0.265704  -0.032042
    27  H    0.001603   0.374310   0.519423  -0.025746  -0.032739   0.000281
    28  H    0.000173   0.369824  -0.025746   0.528566  -0.043610  -0.003981
    29  C   -0.000021   0.265704  -0.032739  -0.043610   5.426372   0.380595
    30  H   -0.000001  -0.032042   0.000281  -0.003981   0.380595   0.511233
    31  H   -0.000001  -0.043171  -0.004015   0.003676   0.370589  -0.027486
             31
     1  C    0.000000
     2  C    0.000000
     3  C    0.000031
     4  C   -0.000157
     5  C    0.000001
     6  C    0.000000
     7  H    0.000000
     8  H   -0.000039
     9  H    0.000000
    10  H    0.000000
    11  C    0.000000
    12  N    0.000000
    13  N    0.001254
    14  C    0.000692
    15  H    0.002050
    16  C   -0.040076
    17  H   -0.003739
    18  C    0.003465
    19  H    0.000030
    20  H   -0.000084
    21  H    0.000008
    22  C   -0.000054
    23  H    0.000003
    24  H    0.000003
    25  H   -0.000001
    26  C   -0.043171
    27  H   -0.004015
    28  H    0.003676
    29  C    0.370589
    30  H   -0.027486
    31  H    0.532406
 Mulliken atomic charges:
              1
     1  C   -0.006794
     2  C   -0.163097
     3  C   -0.202153
     4  C    0.303792
     5  C   -0.191110
     6  C   -0.164021
     7  H    0.202016
     8  H    0.199758
     9  H    0.214999
    10  H    0.201408
    11  C    0.280133
    12  N   -0.483304
    13  N   -0.649617
    14  C   -0.050091
    15  H    0.196170
    16  C   -0.052109
    17  H    0.203198
    18  C   -0.529599
    19  H    0.200187
    20  H    0.205648
    21  H    0.182197
    22  C   -0.556735
    23  H    0.212625
    24  H    0.204604
    25  H    0.192645
    26  C   -0.370014
    27  H    0.198008
    28  H    0.207998
    29  C   -0.394151
    30  H    0.202793
    31  H    0.204616
 Sum of Mulliken atomic charges =   0.00000
 Mulliken charges with hydrogens summed into heavy atoms:
              1
     1  C   -0.006794
     2  C    0.038919
     3  C   -0.002395
     4  C    0.303792
     5  C    0.023889
     6  C    0.037387
    11  C    0.280133
    12  N   -0.483304
    13  N   -0.649617
    14  C    0.146079
    16  C    0.151089
    18  C    0.058433
    22  C    0.053139
    26  C    0.035993
    29  C    0.013259
 Sum of Mulliken charges with hydrogens summed into heavy atoms =   0.00000
 Electronic spatial extent (au):  <R**2>=           3847.1632
 Charge=              0.0000 electrons
 Dipole moment (field-independent basis, Debye):
    X=              6.6234    Y=              0.1552    Z=             -0.5091  Tot=              6.6448
 Quadrupole moment (field-independent basis, Debye-Ang):
   XX=           -117.5694   YY=            -81.7424   ZZ=            -92.1280
   XY=             -0.9189   XZ=             -2.4580   YZ=              1.6369
 Traceless Quadrupole moment (field-independent basis, Debye-Ang):
   XX=            -20.4228   YY=             15.4042   ZZ=              5.0186
   XY=             -0.9189   XZ=             -2.4580   YZ=              1.6369
 Octapole moment (field-independent basis, Debye-Ang**2):
  XXX=            245.1426  YYY=              0.3750  ZZZ=             -1.0959  XYY=             -2.3943
  XXY=              4.9273  XXZ=              4.9937  XZZ=              9.1782  YZZ=              0.4383
  YYZ=             -0.7415  XYZ=             -4.3698
 Hexadecapole moment (field-independent basis, Debye-Ang**3):
 XXXX=          -5364.7722 YYYY=           -935.8037 ZZZZ=           -264.3957 XXXY=            -32.4341
 XXXZ=            -53.9815 YYYX=             -0.8456 YYYZ=              9.5171 ZZZX=             -1.3523
 ZZZY=              0.1511 XXYY=           -783.9629 XXZZ=           -714.9979 YYZZ=           -208.9592
 XXYZ=              5.5022 YYXZ=             -2.9409 ZZXY=              3.7143
 N-N= 9.535183678903D+02 E-N=-3.322812948146D+03  KE= 6.067472875253D+02
 1|1|UNPC-DESKTOP-K2VF0AK|SP|RTD-B3LYP-FC|3-21G|C13H16N2|MELIH|17-Dec-2
 024|0||# td b3lyp/3-21g geom=connectivity||Title Card Required||0,1|C,
 0,-2.94526583,-0.04482526,-0.0624325|C,0,-2.29373093,-0.28261723,1.139
 88558|C,0,-0.91368396,-0.26542554,1.19023261|C,0,-0.16322,-0.014229,0.
 051556|C,0,-0.82529425,0.22265316,-1.14835611|C,0,-2.20284199,0.209272
 7,-1.20973804|H,0,-2.86645886,-0.47750751,2.02376518|H,0,-0.39771167,-
 0.44346011,2.1100602|H,0,-0.25738256,0.41727974,-2.03578537|H,0,-2.707
 21848,0.39256067,-2.13680653|C,0,-4.37232549,-0.06044276,-0.12170622|N
 ,0,-5.51185558,-0.07282067,-0.16934505|N,0,1.257874,-0.010422,0.138276
 |C,0,2.03416561,-0.64093539,-0.95531063|H,0,1.6960666,-1.65933488,-1.1
 4142586|C,0,1.87308288,-0.2754567,1.47149748|H,0,1.21776079,-0.8960109
 ,2.07240343|C,0,2.12991033,1.04915446,2.19356764|H,0,2.80504107,1.6597
 3881,1.60664224|H,0,1.20223955,1.59440031,2.32363273|H,0,2.56614937,0.
 87594593,3.17177093|C,0,1.93928687,0.17775103,-2.24217859|H,0,0.920753
 5,0.20612461,-2.61083235|H,0,2.26325708,1.191936,-2.04441825|H,0,2.568
 03592,-0.25408102,-3.01346283|C,0,3.44421034,-0.6745331,-0.3468631|H,0
 ,4.0894991,-1.385269,-0.8460493|H,0,3.88305853,0.31327112,-0.41732342|
 C,0,3.17939875,-1.03725637,1.12783119|H,0,3.9937199,-0.75756949,1.7824
 7495|H,0,3.01963899,-2.1060484,1.21367341||Version=IA32W-G09RevA.02|St
 ate=1-A|HF=-611.1347054|RMSD=3.850e-009|PG=C01 [X(C13H16N2)]||@


 Just remember, when you're over the hill, you begin to pick up speed.
 -- Charles Schulz
 Job cpu time:  0 days  0 hours  6 minutes 22.0 seconds.
 File lengths (MBytes):  RWF=     64 Int=      0 D2E=      0 Chk=      5 Scr=      1
 Normal termination of Gaussian 09 at Tue Dec 17 16:26:02 2024.
