 Entering Link 1 = C:\G09W\l1.exe PID=     13084.
  
 Copyright (c) 1988,1990,1992,1993,1995,1998,2003,2009, Gaussian, Inc.
                  All Rights Reserved.
  
 This is part of the Gaussian(R) 09 program.  It is based on
 the Gaussian(R) 03 system (copyright 2003, Gaussian, Inc.),
 the Gaussian(R) 98 system (copyright 1998, Gaussian, Inc.),
 the Gaussian(R) 94 system (copyright 1995, Gaussian, Inc.),
 the Gaussian 92(TM) system (copyright 1992, Gaussian, Inc.),
 the Gaussian 90(TM) system (copyright 1990, Gaussian, Inc.),
 the Gaussian 88(TM) system (copyright 1988, Gaussian, Inc.),
 the Gaussian 86(TM) system (copyright 1986, Carnegie Mellon
 University), and the Gaussian 82(TM) system (copyright 1983,
 Carnegie Mellon University). Gaussian is a federally registered
 trademark of Gaussian, Inc.
  
 This software contains proprietary and confidential information,
 including trade secrets, belonging to Gaussian, Inc.
  
 This software is provided under written license and may be
 used, copied, transmitted, or stored only in accord with that
 written license.
  
 The following legend is applicable only to US Government
 contracts under FAR:
  
                    RESTRICTED RIGHTS LEGEND
  
 Use, reproduction and disclosure by the US Government is
 subject to restrictions as set forth in subparagraphs (a)
 and (c) of the Commercial Computer Software - Restricted
 Rights clause in FAR 52.227-19.
  
 Gaussian, Inc.
 340 Quinnipiac St., Bldg. 40, Wallingford CT 06492
  
  
 ---------------------------------------------------------------
 Warning -- This program may not be used in any manner that
 competes with the business of Gaussian, Inc. or will provide
 assistance to any competitor of Gaussian, Inc.  The licensee
 of this program is prohibited from giving any competitor of
 Gaussian, Inc. access to this program.  By using this program,
 the user acknowledges that Gaussian, Inc. is engaged in the
 business of creating and licensing software in the field of
 computational chemistry and represents and warrants to the
 licensee that it is not a competitor of Gaussian, Inc. and that
 it will not use this program in any manner prohibited above.
 ---------------------------------------------------------------
  

 Cite this work as:
 Gaussian 09, Revision A.02,
 M. J. Frisch, G. W. Trucks, H. B. Schlegel, G. E. Scuseria, 
 M. A. Robb, J. R. Cheeseman, G. Scalmani, V. Barone, B. Mennucci, 
 G. A. Petersson, H. Nakatsuji, M. Caricato, X. Li, H. P. Hratchian, 
 A. F. Izmaylov, J. Bloino, G. Zheng, J. L. Sonnenberg, M. Hada, 
 M. Ehara, K. Toyota, R. Fukuda, J. Hasegawa, M. Ishida, T. Nakajima, 
 Y. Honda, O. Kitao, H. Nakai, T. Vreven, J. A. Montgomery, Jr., 
 J. E. Peralta, F. Ogliaro, M. Bearpark, J. J. Heyd, E. Brothers, 
 K. N. Kudin, V. N. Staroverov, R. Kobayashi, J. Normand, 
 K. Raghavachari, A. Rendell, J. C. Burant, S. S. Iyengar, J. Tomasi, 
 M. Cossi, N. Rega, J. M. Millam, M. Klene, J. E. Knox, J. B. Cross, 
 V. Bakken, C. Adamo, J. Jaramillo, R. Gomperts, R. E. Stratmann, 
 O. Yazyev, A. J. Austin, R. Cammi, C. Pomelli, J. W. Ochterski, 
 R. L. Martin, K. Morokuma, V. G. Zakrzewski, G. A. Voth, 
 P. Salvador, J. J. Dannenberg, S. Dapprich, A. D. Daniels, 
 O. Farkas, J. B. Foresman, J. V. Ortiz, J. Cioslowski, 
 and D. J. Fox, Gaussian, Inc., Wallingford CT, 2009.
 
 ******************************************
 Gaussian 09:  IA32W-G09RevA.02 11-Jun-2009
                25-Dec-2024 
 ******************************************
 %chk=C:\G09W\Hw5\ENERGY280.chk
 ----------------------------------
 # td b3lyp/3-21g geom=connectivity
 ----------------------------------
 1/38=1,57=2/1;
 2/12=2,17=6,18=5,40=1/2;
 3/5=5,11=2,16=1,25=1,30=1,74=-5/1,2,8,3;
 4//1;
 5/5=2,38=5/2;
 8/6=1,10=1/1;
 9/42=1/14;
 6/7=2,8=2,9=2,10=2/1;
 99/5=1,9=1/99;
 -------------------
 Title Card Required
 -------------------
 Symbolic Z-matrix:
 Charge =  0 Multiplicity = 1
 C                     2.94381   0.01053  -0.05572 
 C                     2.18857  -0.74428  -0.94256 
 C                     0.8099   -0.7233   -0.86386 
 C                     0.16348   0.04344   0.09381 
 C                     0.929     0.79611   0.97794 
 C                     2.30612   0.78367   0.90744 
 H                     2.68059  -1.33915  -1.68505 
 H                     0.21458  -1.29695  -1.54247 
 H                     0.44212   1.39229   1.72322 
 H                     2.89045   1.36559   1.59109 
 C                     4.37007  -0.0059   -0.13175 
 N                     5.50898  -0.0188   -0.19224 
 N                    -1.25912   0.03655   0.15057 
 C                    -1.96916  -1.24396  -0.07798 
 H                    -1.65232  -1.70862  -1.0106 
 C                    -1.98448   1.18432  -0.46804 
 H                    -1.39912   1.60885  -1.27597 
 C                    -2.25155   2.25665   0.5906 
 H                    -2.85807   1.84113   1.38594 
 H                    -1.31883   2.60494   1.019 
 H                    -2.76794   3.1062    0.1561 
 C                    -1.74712  -2.21266   1.08288 
 H                    -0.70269  -2.48965   1.16389 
 H                    -2.05093  -1.7373    2.0072 
 H                    -2.32842  -3.11705   0.93846 
 C                    -3.42247  -0.76552  -0.21419 
 H                    -4.05079  -1.49699  -0.705 
 H                    -3.82084  -0.56048   0.772 
 C                    -3.28525   0.5431   -1.01736 
 H                    -4.13795   1.19852  -0.90235 
 H                    -3.1689    0.31031  -2.06973 
 
                          Input orientation:                          
 ---------------------------------------------------------------------
 Center     Atomic      Atomic             Coordinates (Angstroms)
 Number     Number       Type             X           Y           Z
 ---------------------------------------------------------------------
      1          6           0        2.943812    0.010534   -0.055722
      2          6           0        2.188573   -0.744279   -0.942562
      3          6           0        0.809904   -0.723299   -0.863861
      4          6           0        0.163476    0.043438    0.093805
      5          6           0        0.929002    0.796107    0.977944
      6          6           0        2.306122    0.783673    0.907435
      7          1           0        2.680588   -1.339154   -1.685049
      8          1           0        0.214577   -1.296952   -1.542473
      9          1           0        0.442120    1.392294    1.723224
     10          1           0        2.890453    1.365586    1.591088
     11          6           0        4.370068   -0.005904   -0.131753
     12          7           0        5.508983   -0.018805   -0.192235
     13          7           0       -1.259118    0.036553    0.150572
     14          6           0       -1.969161   -1.243960   -0.077977
     15          1           0       -1.652315   -1.708624   -1.010599
     16          6           0       -1.984480    1.184319   -0.468042
     17          1           0       -1.399115    1.608847   -1.275969
     18          6           0       -2.251547    2.256651    0.590599
     19          1           0       -2.858072    1.841126    1.385936
     20          1           0       -1.318833    2.604940    1.018995
     21          1           0       -2.767942    3.106202    0.156102
     22          6           0       -1.747116   -2.212659    1.082882
     23          1           0       -0.702685   -2.489650    1.163893
     24          1           0       -2.050929   -1.737304    2.007203
     25          1           0       -2.328416   -3.117046    0.938459
     26          6           0       -3.422471   -0.765521   -0.214186
     27          1           0       -4.050793   -1.496990   -0.704997
     28          1           0       -3.820844   -0.560475    0.772001
     29          6           0       -3.285248    0.543101   -1.017362
     30          1           0       -4.137949    1.198520   -0.902346
     31          1           0       -3.168898    0.310313   -2.069731
 ---------------------------------------------------------------------
                    Distance matrix (angstroms):
                    1          2          3          4          5
     1  C    0.000000
     2  C    1.388025   0.000000
     3  C    2.396907   1.381072   0.000000
     4  C    2.784548   2.407399   1.386679   0.000000
     5  C    2.396883   2.765439   2.390612   1.390770   0.000000
     6  C    1.389987   2.402279   2.765344   2.408501   1.378980
     7  H    2.132053   1.071094   2.133796   3.378126   3.836525
     8  H    3.371746   2.135884   1.069583   2.115813   3.353178
     9  H    3.366359   3.836855   3.362144   2.133556   1.071418
    10  H    2.133306   3.370986   3.836521   3.380286   2.132496
    11  C    1.428375   2.441624   3.704781   4.212923   3.703455
    12  N    2.568968   3.480578   4.798826   5.353516   4.796835
    13  N    4.208070   3.700164   2.426377   1.423743   2.459540
    14  C    5.070656   4.275972   2.934605   2.497007   3.698133
    15  H    4.999167   3.960683   2.656110   2.754365   4.109888
    16  C    5.082897   4.621583   3.406503   2.496196   3.275662
    17  H    4.785877   4.303472   3.238596   2.601630   3.340779
    18  C    5.696887   5.574121   4.513097   3.313224   3.521238
    19  H    6.252304   6.129832   5.009183   3.745803   3.949741
    20  H    5.104518   5.231335   4.376511   3.100727   2.885537
    21  H    6.500166   6.371837   5.339137   4.240002   4.436143
    22  C    5.314491   4.663497   3.542083   3.117468   4.028063
    23  H    4.586428   3.980307   3.085403   2.883029   3.673306
    24  H    5.679616   5.259333   4.177988   3.425744   4.044444
    25  H    6.210196   5.437963   4.339059   4.112375   5.091669
    26  C    6.415367   5.658162   4.282156   3.688941   4.774429
    27  H    7.184614   6.289093   4.924451   4.557529   5.734888
    28  H    6.838987   6.251928   4.913897   4.086498   4.944063
    29  C    6.325311   5.623669   4.289243   3.657602   4.669600
    30  H    7.230451   6.618230   5.308118   4.563857   5.419541
    31  H    6.442928   5.575407   4.284080   3.982063   5.130020
                    6          7          8          9         10
     6  C    0.000000
     7  H    3.371586   0.000000
     8  H    3.834790   2.470490   0.000000
     9  H    2.123779   4.907940   4.236579   0.000000
    10  H    1.071189   4.253555   4.905979   2.452042   0.000000
    11  C    2.441969   2.654171   4.574389   4.563406   2.653003
    12  N    3.480167   3.460004   5.611375   5.597614   3.457380
    13  N    3.720480   4.558877   2.610827   2.684302   4.589156
    14  C    4.833258   4.920560   2.629880   4.001054   5.762929
    15  H    5.055653   4.400618   1.984352   4.634236   6.070937
    16  C    4.523464   5.441680   3.485249   3.276169   5.295077
    17  H    4.379149   5.049954   3.334471   3.525932   5.165228
    18  C    4.800250   6.514165   4.822848   3.047260   5.313675
    19  H    5.293021   7.086740   5.278664   3.347608   5.771808
    20  H    4.058295   6.234028   4.912966   2.251089   4.425085
    21  H    5.630699   7.268942   5.582862   3.962051   6.091499
    22  C    5.043563   5.294244   3.402830   4.265968   5.879554
    23  H    4.453464   4.570191   3.096501   4.085697   5.287341
    24  H    5.152544   6.014857   4.233985   4.011274   5.849644
    25  H    6.057683   5.927379   3.991814   5.350315   6.910608
    26  C    6.039439   6.303953   3.908310   4.831644   6.903161
    27  H    6.943467   6.804183   4.351410   5.867750   7.851576
    28  H    6.274137   6.993716   4.709970   4.784453   7.030087
    29  C    5.918289   6.291255   3.988774   4.703744   6.754241
    30  H    6.706226   7.317436   5.057829   5.282821   7.459461
    31  H    6.250075   6.089763   3.782751   5.347583   7.157578
                   11         12         13         14         15
    11  C    0.000000
    12  N    1.140593   0.000000
    13  N    5.636421   6.777003   0.000000
    14  C    6.459218   7.578700   1.481928   0.000000
    15  H    6.319867   7.403337   2.132736   1.089077   0.000000
    16  C    6.473793   7.594443   1.492046   2.459456   2.962064
    17  H    6.099190   7.179523   2.127611   3.146211   3.337686
    18  C    7.034680   8.125045   2.471310   3.575054   4.318138
    19  H    7.613206   8.715364   2.709107   3.528592   4.449489
    20  H    6.364300   7.414188   2.711888   4.054665   4.778838
    21  H    7.792256   8.854066   3.420428   4.429080   5.078225
    22  C    6.615515   7.686995   2.483203   1.528161   2.155389
    23  H    5.794869   6.821215   2.778154   2.167475   2.498042
    24  H    6.985848   8.058724   2.687120   2.144306   3.044149
    25  H    7.462857   8.503081   3.421893   2.161170   2.497918
    26  C    7.829909   8.962641   2.335908   1.536088   2.158048
    27  H    8.571047   9.686964   3.298060   2.188691   2.427113
    28  H    8.259259   9.395149   2.702787   2.149033   3.032891
    29  C    7.725902   8.850710   2.392878   2.410003   2.781507
    30  H    8.627329   9.749330   3.278181   3.368818   3.826432
    31  H    7.790491   8.884758   2.941420   2.796823   2.738228
                   16         17         18         19         20
    16  C    0.000000
    17  H    1.084261   0.000000
    18  C    1.530340   2.151829   0.000000
    19  H    2.152160   3.044380   1.083095   0.000000
    20  H    2.161603   2.503099   1.083874   1.757075   0.000000
    21  H    2.167257   2.483261   1.084983   1.766644   1.759479
    22  C    3.741813   4.504352   4.524547   4.214171   4.837021
    23  H    4.219509   4.820334   5.025437   4.842584   5.133759
    24  H    3.829769   4.732949   4.242486   3.720566   4.513048
    25  H    4.538533   5.301071   5.385493   5.006420   5.810927
    26  C    2.436008   3.295296   3.339501   3.110232   4.160052
    27  H    3.393408   4.123546   4.359550   4.115532   5.221263
    28  H    2.820327   3.842514   3.229830   2.659236   4.042390
    29  C    1.550777   2.181786   2.567164   2.764632   3.502102
    30  H    2.196873   2.794490   2.628125   2.699493   3.690120
    31  H    2.175348   2.334177   3.421567   3.792313   4.269459
                   21         22         23         24         25
    21  H    0.000000
    22  C    5.494660   0.000000
    23  H    6.049338   1.083570   0.000000
    24  H    5.234523   1.082882   1.759249   0.000000
    25  H    6.287613   1.084750   1.757113   1.767173   0.000000
    26  C    3.944079   2.565815   3.502707   2.785688   2.838171
    27  H    4.855572   3.002602   3.960802   3.378348   2.879603
    28  H    3.864253   2.669589   3.687575   2.458302   2.964980
    29  C    2.866027   3.790922   4.541485   3.983941   4.258807
    30  H    2.576137   4.614472   5.447291   4.630355   5.028626
    31  H    3.596122   4.280867   4.937441   4.697231   4.637069
                   26         27         28         29         30
    26  C    0.000000
    27  H    1.082003   0.000000
    28  H    1.083194   1.763933   0.000000
    29  C    1.541562   2.201273   2.169461   0.000000
    30  H    2.200666   2.704130   2.449093   1.081620   0.000000
    31  H    2.159807   2.430346   3.042819   1.084070   1.758056
                   31
    31  H    0.000000
 Stoichiometry    C13H16N2
 Framework group  C1[X(C13H16N2)]
 Deg. of freedom    87
 Full point group                 C1      NOp   1
 Largest Abelian subgroup         C1      NOp   1
 Largest concise Abelian subgroup C1      NOp   1
                         Standard orientation:                         
 ---------------------------------------------------------------------
 Center     Atomic      Atomic             Coordinates (Angstroms)
 Number     Number       Type             X           Y           Z
 ---------------------------------------------------------------------
      1          6           0        2.943407    0.017867   -0.068237
      2          6           0        2.188817   -0.829452   -0.867772
      3          6           0        0.810230   -0.803841   -0.789010
      4          6           0        0.163247    0.059182    0.082474
      5          6           0        0.928126    0.904107    0.879534
      6          6           0        2.305154    0.887866    0.808005
      7          1           0        2.681264   -1.499000   -1.543379
      8          1           0        0.215389   -1.448349   -1.401202
      9          1           0        0.440814    1.575273    1.557766
     10          1           0        2.888984    1.541095    1.424348
     11          6           0        4.369572   -0.002816   -0.144926
     12          7           0        5.508415   -0.019084   -0.205959
     13          7           0       -1.259222    0.054626    0.142497
     14          6           0       -1.965993   -1.244867    0.053596
     15          1           0       -1.649411   -1.805747   -0.824627
     16          6           0       -1.988913    1.127732   -0.593843
     17          1           0       -1.406140    1.464989   -1.443700
     18          6           0       -2.257237    2.306402    0.344603
     19          1           0       -2.861217    1.976693    1.181021
     20          1           0       -1.324793    2.700979    0.731436
     21          1           0       -2.776796    3.103246   -0.177207
     22          6           0       -1.739205   -2.083288    1.310931
     23          1           0       -0.693850   -2.347252    1.419006
     24          1           0       -2.042799   -1.512631    2.179732
     25          1           0       -2.318164   -2.999475    1.265199
     26          6           0       -3.420894   -0.787599   -0.130082
     27          1           0       -4.047960   -1.569024   -0.538611
     28          1           0       -3.818170   -0.479336    0.829321
     29          6           0       -3.288778    0.427997   -1.068850
     30          1           0       -4.143150    1.089688   -1.022869
     31          1           0       -3.173557    0.084324   -2.090526
 ---------------------------------------------------------------------
 Rotational constants (GHZ):      1.4237697      0.3179616      0.2909198
 Standard basis: 3-21G (6D, 7F)
 There are   167 symmetry adapted basis functions of A   symmetry.
 Integral buffers will be    262144 words long.
 Raffenetti 2 integral format.
 Two-electron integral symmetry is turned on.
   167 basis functions,   273 primitive gaussians,   167 cartesian basis functions
    54 alpha electrons       54 beta electrons
       nuclear repulsion energy       950.8526154799 Hartrees.
 NAtoms=   31 NActive=   31 NUniq=   31 SFac= 7.50D-01 NAtFMM=   80 NAOKFM=F Big=F
 One-electron integrals computed using PRISM.
 NBasis=   167 RedAO= T  NBF=   167
 NBsUse=   167 1.00D-06 NBFU=   167
 Harris functional with IExCor=  402 diagonalized for initial guess.
 ExpMin= 1.83D-01 ExpMax= 2.43D+02 ExpMxC= 2.43D+02 IAcc=1 IRadAn=         1 AccDes= 0.00D+00
 HarFok:  IExCor=  402 AccDes= 0.00D+00 IRadAn=         1 IDoV= 1
 ScaDFX=  1.000000  1.000000  1.000000  1.000000
 FoFCou: FMM=F IPFlag=           0 FMFlag=      100000 FMFlg1=           0
         NFxFlg=           0 DoJE=T BraDBF=F KetDBF=T FulRan=T
         Omega=  0.000000  0.000000  1.000000  0.000000  0.000000 ICntrl=     500 IOpCl=  0
         NMat0=    1 NMatS0=    1 NMatT0=    0 NMatD0=    1 NMtDS0=    0 NMtDT0=    0
         I1Cent=           4 NGrid=           0.
 Petite list used in FoFCou.
 Initial guess orbital symmetries:
       Occupied  (A) (A) (A) (A) (A) (A) (A) (A) (A) (A) (A) (A)
                 (A) (A) (A) (A) (A) (A) (A) (A) (A) (A) (A) (A)
                 (A) (A) (A) (A) (A) (A) (A) (A) (A) (A) (A) (A)
                 (A) (A) (A) (A) (A) (A) (A) (A) (A) (A) (A) (A)
                 (A) (A) (A) (A) (A) (A)
       Virtual   (A) (A) (A) (A) (A) (A) (A) (A) (A) (A) (A) (A)
                 (A) (A) (A) (A) (A) (A) (A) (A) (A) (A) (A) (A)
                 (A) (A) (A) (A) (A) (A) (A) (A) (A) (A) (A) (A)
                 (A) (A) (A) (A) (A) (A) (A) (A) (A) (A) (A) (A)
                 (A) (A) (A) (A) (A) (A) (A) (A) (A) (A) (A) (A)
                 (A) (A) (A) (A) (A) (A) (A) (A) (A) (A) (A) (A)
                 (A) (A) (A) (A) (A) (A) (A) (A) (A) (A) (A) (A)
                 (A) (A) (A) (A) (A) (A) (A) (A) (A) (A) (A) (A)
                 (A) (A) (A) (A) (A) (A) (A) (A) (A) (A) (A) (A)
                 (A) (A) (A) (A) (A)
 The electronic state of the initial guess is 1-A.
 Requested convergence on RMS density matrix=1.00D-08 within 128 cycles.
 Requested convergence on MAX density matrix=1.00D-06.
 Requested convergence on             energy=1.00D-06.
 No special actions if energy rises.
 Integral accuracy reduced to 1.0D-05 until final iterations.
 Initial convergence to 1.0D-05 achieved.  Increase integral accuracy.
 SCF Done:  E(RB3LYP) =  -611.148388595     A.U. after   16 cycles
             Convg  =    0.3169D-08             -V/T =  2.0074
 ExpMin= 1.83D-01 ExpMax= 2.43D+02 ExpMxC= 2.43D+02 IAcc=1 IRadAn=         1 AccDes= 0.00D+00
 HarFok:  IExCor=  205 AccDes= 0.00D+00 IRadAn=         1 IDoV=-2
 ScaDFX=  1.000000  1.000000  1.000000  1.000000
 Range of M.O.s used for correlation:    16   167
 NBasis=   167 NAE=    54 NBE=    54 NFC=    15 NFV=     0
 NROrb=    152 NOA=    39 NOB=    39 NVA=   113 NVB=   113
 Would need an additional   268100000 words for in-memory AO integral storage.
 Orbital symmetries:
       Occupied  (A) (A) (A) (A) (A) (A) (A) (A) (A) (A) (A) (A)
                 (A) (A) (A) (A) (A) (A) (A) (A) (A) (A) (A) (A)
                 (A) (A) (A) (A) (A) (A) (A) (A) (A) (A) (A) (A)
                 (A) (A) (A) (A) (A) (A) (A) (A) (A) (A) (A) (A)
                 (A) (A) (A) (A) (A) (A)
       Virtual   (A) (A) (A) (A) (A) (A) (A) (A) (A) (A) (A) (A)
                 (A) (A) (A) (A) (A) (A) (A) (A) (A) (A) (A) (A)
                 (A) (A) (A) (A) (A) (A) (A) (A) (A) (A) (A) (A)
                 (A) (A) (A) (A) (A) (A) (A) (A) (A) (A) (A) (A)
                 (A) (A) (A) (A) (A) (A) (A) (A) (A) (A) (A) (A)
                 (A) (A) (A) (A) (A) (A) (A) (A) (A) (A) (A) (A)
                 (A) (A) (A) (A) (A) (A) (A) (A) (A) (A) (A) (A)
                 (A) (A) (A) (A) (A) (A) (A) (A) (A) (A) (A) (A)
                 (A) (A) (A) (A) (A) (A) (A) (A) (A) (A) (A) (A)
                 (A) (A) (A) (A) (A)
    12 initial guesses have been made.
 Convergence on wavefunction:    0.001000000000000
 Iteration     1 Dimension    12 NMult    12
 CISAX will form    12 AO SS matrices at one time.
 No map to state      3
 Iteration     2 Dimension    18 NMult    18
 Iteration     3 Dimension    24 NMult    24
 Iteration     4 Dimension    30 NMult    30
 Iteration     5 Dimension    34 NMult    34
 ***********************************************************************
 Excited states from <AA,BB:AA,BB> singles matrix:
 ***********************************************************************
 
 Ground to excited state transition electric dipole moments (Au):
       state          X           Y           Z        Dip. S.      Osc.
         1         1.2397     -0.0154     -0.0140      1.5374      0.1506
         2        -0.0548     -0.1433     -0.1692      0.0522      0.0056
         3        -0.0262     -0.1609     -0.1623      0.0529      0.0072
 Ground to excited state transition velocity dipole moments (Au):
       state          X           Y           Z        Dip. S.      Osc.
         1        -0.1487      0.0034     -0.0035      0.0221      0.1004
         2         0.0085      0.0219      0.0284      0.0014      0.0056
         3         0.0053      0.0278      0.0281      0.0016      0.0052
 Ground to excited state transition magnetic dipole moments (Au):
       state          X           Y           Z
         1         0.2311     -0.0442      0.0985
         2         0.0560     -0.2673      0.4498
         3         0.0376     -0.0721      0.1313
 <0|del|b> * <b|rxdel|0> + <0|del|b> * <b|delr+rdel|0>
 Rotatory Strengths (R) in cgs (10**-40 erg-esu-cm/Gauss)
       state          XX          YY          ZZ    R(velocity)
         1        -1.4487    -66.6375    -99.6875    -55.9246
 Total R(velocity) tensor for State=          1
                 1             2             3 
      1  -0.144867D+01 -0.409612D+02  0.217805D+02
      2  -0.281186D+01 -0.666375D+02  0.547471D+02
      3   0.207040D+01 -0.121988D+02 -0.996875D+02
 R(velocity) tensor in inp. orien. for State=          1
                 1             2             3 
      1  -0.161377D+01 -0.432393D+02  0.175996D+02
      2  -0.331529D+01 -0.714066D+02  0.577191D+02
      3   0.189045D+01 -0.925037D+01 -0.947533D+02
         2        14.1349     28.3757    -10.1715     10.7797
 Total R(velocity) tensor for State=          2
                 1             2             3 
      1   0.141349D+02  0.357760D+01 -0.699582D+01
      2  -0.260072D+01  0.283757D+02 -0.210894D+02
      3  -0.277406D+01  0.142770D+02 -0.101715D+02
 R(velocity) tensor in inp. orien. for State=          2
                 1             2             3 
      1   0.141571D+02  0.431512D+01 -0.657952D+01
      2  -0.221894D+01  0.286533D+02 -0.168985D+02
      3  -0.294158D+01  0.184689D+02 -0.104714D+02
         3         2.7029      2.2587      1.5212      2.1610
 Total R(velocity) tensor for State=          3
                 1             2             3 
      1   0.270290D+01 -0.267605D+00 -0.246593D+00
      2  -0.132575D+01  0.225873D+01 -0.198393D+01
      3  -0.159608D+01 -0.123235D+01  0.152123D+01
 R(velocity) tensor in inp. orien. for State=          3
                 1             2             3 
      1   0.270236D+01 -0.238114D+00 -0.276548D+00
      2  -0.114461D+01  0.259619D+01 -0.186991D+01
      3  -0.172929D+01 -0.111264D+01  0.118431D+01
 1/2[<0|r|b>*<b|rxdel|0> + (<0|rxdel|b>*<b|r|0>)*]
 Rotatory Strengths (R) in cgs (10**-40 erg-esu-cm/Gauss)
       state          XX          YY          ZZ     R(length)     R(au)
         1      -202.5918     -0.4803      0.9778    -67.3647     -0.1429
         2         2.1701    -27.0950     53.8232      9.6328      0.0204
         3         0.6974     -8.2056     15.0673      2.5197      0.0053
  1/2[<0|del|b>*<b|r|0> + (<0|r|b>*<b|del|0>)*] (Au)
       state          X           Y           Z        Dip. S.   Osc.(frdel)
         1        -0.1843     -0.0001      0.0000      0.1843      0.1229
         2        -0.0005     -0.0031     -0.0048      0.0084      0.0056
         3        -0.0001     -0.0045     -0.0046      0.0092      0.0061
 Ground to excited state transition densities written to RWF  633

 Excitation energies and oscillator strengths:
 
 Excited State   1:      Singlet-A      3.9975 eV  310.16 nm  f=0.1506  <S**2>=0.000
      53 -> 55        -0.10146
      54 -> 55         0.69521
 This state for optimization and/or second-order correction.
 Copying the excited state density for this state as the 1-particle RhoCI density.
 
 Excited State   2:      Singlet-A      4.3985 eV  281.88 nm  f=0.0056  <S**2>=0.000
      52 -> 55        -0.11422
      54 -> 56         0.69613
 
 Excited State   3:      Singlet-A      5.5815 eV  222.13 nm  f=0.0072  <S**2>=0.000
      52 -> 55         0.53347
      53 -> 56        -0.45680
 SavETr:  write IOETrn=   770 NScale= 10 NData=  16 NLR=1 LETran=      62.

 **********************************************************************

            Population analysis using the SCF density.

 **********************************************************************

 Orbital symmetries:
       Occupied  (A) (A) (A) (A) (A) (A) (A) (A) (A) (A) (A) (A)
                 (A) (A) (A) (A) (A) (A) (A) (A) (A) (A) (A) (A)
                 (A) (A) (A) (A) (A) (A) (A) (A) (A) (A) (A) (A)
                 (A) (A) (A) (A) (A) (A) (A) (A) (A) (A) (A) (A)
                 (A) (A) (A) (A) (A) (A)
       Virtual   (A) (A) (A) (A) (A) (A) (A) (A) (A) (A) (A) (A)
                 (A) (A) (A) (A) (A) (A) (A) (A) (A) (A) (A) (A)
                 (A) (A) (A) (A) (A) (A) (A) (A) (A) (A) (A) (A)
                 (A) (A) (A) (A) (A) (A) (A) (A) (A) (A) (A) (A)
                 (A) (A) (A) (A) (A) (A) (A) (A) (A) (A) (A) (A)
                 (A) (A) (A) (A) (A) (A) (A) (A) (A) (A) (A) (A)
                 (A) (A) (A) (A) (A) (A) (A) (A) (A) (A) (A) (A)
                 (A) (A) (A) (A) (A) (A) (A) (A) (A) (A) (A) (A)
                 (A) (A) (A) (A) (A) (A) (A) (A) (A) (A) (A) (A)
                 (A) (A) (A) (A) (A)
 The electronic state is 1-A.
 Alpha  occ. eigenvalues --  -14.25253 -14.24297 -10.17564 -10.16842 -10.16094
 Alpha  occ. eigenvalues --  -10.16012 -10.15354 -10.14811 -10.14746 -10.13717
 Alpha  occ. eigenvalues --  -10.13696 -10.12568 -10.12412 -10.10918 -10.10798
 Alpha  occ. eigenvalues --   -0.95293  -0.93074  -0.88391  -0.81220  -0.78638
 Alpha  occ. eigenvalues --   -0.77242  -0.75568  -0.71692  -0.65334  -0.64956
 Alpha  occ. eigenvalues --   -0.63997  -0.58673  -0.57627  -0.57006  -0.53086
 Alpha  occ. eigenvalues --   -0.49679  -0.48531  -0.46663  -0.45951  -0.44864
 Alpha  occ. eigenvalues --   -0.43391  -0.43137  -0.41630  -0.41240  -0.40205
 Alpha  occ. eigenvalues --   -0.39170  -0.38052  -0.37693  -0.37293  -0.36220
 Alpha  occ. eigenvalues --   -0.34392  -0.33969  -0.33830  -0.33608  -0.33363
 Alpha  occ. eigenvalues --   -0.33180  -0.27376  -0.26708  -0.20602
 Alpha virt. eigenvalues --   -0.03420  -0.01244   0.05763   0.09264   0.09791
 Alpha virt. eigenvalues --    0.10570   0.11645   0.13192   0.14201   0.14769
 Alpha virt. eigenvalues --    0.15759   0.16701   0.17188   0.18305   0.18730
 Alpha virt. eigenvalues --    0.19035   0.19977   0.20573   0.21367   0.21916
 Alpha virt. eigenvalues --    0.22409   0.22940   0.23326   0.25314   0.25910
 Alpha virt. eigenvalues --    0.27153   0.28527   0.29056   0.31115   0.32611
 Alpha virt. eigenvalues --    0.34245   0.36826   0.38373   0.39492   0.50966
 Alpha virt. eigenvalues --    0.54557   0.59935   0.63899   0.66068   0.66572
 Alpha virt. eigenvalues --    0.67721   0.69167   0.69812   0.70310   0.70650
 Alpha virt. eigenvalues --    0.72175   0.72579   0.74317   0.75291   0.75848
 Alpha virt. eigenvalues --    0.76229   0.77122   0.77368   0.78190   0.79225
 Alpha virt. eigenvalues --    0.79911   0.81642   0.83180   0.84772   0.86944
 Alpha virt. eigenvalues --    0.89401   0.91164   0.93850   0.93996   0.95338
 Alpha virt. eigenvalues --    0.95853   0.96470   0.99732   1.00627   1.01028
 Alpha virt. eigenvalues --    1.01381   1.04849   1.05746   1.06594   1.08243
 Alpha virt. eigenvalues --    1.08578   1.09377   1.09971   1.12070   1.12519
 Alpha virt. eigenvalues --    1.14036   1.15741   1.15943   1.18495   1.20447
 Alpha virt. eigenvalues --    1.21061   1.22012   1.24829   1.28762   1.29685
 Alpha virt. eigenvalues --    1.33052   1.35688   1.39208   1.41303   1.49527
 Alpha virt. eigenvalues --    1.51510   1.53051   1.54442   1.59861   1.63153
 Alpha virt. eigenvalues --    1.71225   1.75430   1.78811   1.84446   1.92594
 Alpha virt. eigenvalues --    1.94790   1.99017   2.20686   2.35597   2.44261
 Alpha virt. eigenvalues --    2.50702   2.99324   3.00722
          Condensed to atoms (all electrons):
              1          2          3          4          5          6
     1  C    5.432542   0.449341  -0.085169  -0.030276  -0.085120   0.444316
     2  C    0.449341   5.163049   0.401010  -0.052751  -0.023714  -0.059015
     3  C   -0.085169   0.401010   5.329603   0.364146  -0.103325  -0.023411
     4  C   -0.030276  -0.052751   0.364146   4.987907   0.435342  -0.067137
     5  C   -0.085120  -0.023714  -0.103325   0.435342   5.225923   0.422300
     6  C    0.444316  -0.059015  -0.023411  -0.067137   0.422300   5.161136
     7  H   -0.043026   0.395699  -0.033141   0.003629  -0.000204   0.003785
     8  H    0.004353  -0.039883   0.393295  -0.052433   0.003976  -0.000132
     9  H    0.004659  -0.000399   0.005446  -0.043226   0.382005  -0.039620
    10  H   -0.043543   0.003814  -0.000244   0.004097  -0.033563   0.396617
    11  C    0.070027  -0.077341   0.004543  -0.000127   0.004197  -0.077304
    12  N   -0.117641  -0.000751  -0.000006   0.000000  -0.000006  -0.000759
    13  N   -0.000347   0.005290  -0.070445   0.314703  -0.063085   0.004033
    14  C    0.000002   0.000575  -0.007891  -0.066776   0.002209  -0.000138
    15  H    0.000003  -0.000527  -0.000923  -0.003842  -0.000234   0.000013
    16  C    0.000020  -0.000026  -0.000909  -0.068322  -0.001039  -0.000041
    17  H   -0.000013  -0.000178   0.003883  -0.002208  -0.000150   0.000066
    18  C   -0.000001   0.000007  -0.000268  -0.001032  -0.000972   0.000015
    19  H    0.000000   0.000000   0.000007   0.000083  -0.000023   0.000002
    20  H    0.000000  -0.000003   0.000038   0.000971   0.001597   0.000050
    21  H    0.000000   0.000000   0.000009   0.000032  -0.000020   0.000001
    22  C    0.000001  -0.000055  -0.001055  -0.002841   0.000253   0.000022
    23  H   -0.000013   0.000063   0.001957   0.003210   0.000184  -0.000023
    24  H    0.000000  -0.000003   0.000039   0.000375  -0.000084   0.000004
    25  H    0.000000  -0.000002  -0.000005   0.000058  -0.000008   0.000000
    26  C    0.000000  -0.000004   0.000070   0.005223  -0.000115   0.000001
    27  H    0.000000   0.000000   0.000009  -0.000090   0.000000   0.000000
    28  H    0.000000   0.000000  -0.000003  -0.000154   0.000003   0.000000
    29  C    0.000000   0.000003  -0.000175   0.005024  -0.000001   0.000001
    30  H    0.000000   0.000000   0.000000  -0.000059   0.000000   0.000000
    31  H    0.000000   0.000000   0.000012  -0.000173   0.000003   0.000000
              7          8          9         10         11         12
     1  C   -0.043026   0.004353   0.004659  -0.043543   0.070027  -0.117641
     2  C    0.395699  -0.039883  -0.000399   0.003814  -0.077341  -0.000751
     3  C   -0.033141   0.393295   0.005446  -0.000244   0.004543  -0.000006
     4  C    0.003629  -0.052433  -0.043226   0.004097  -0.000127   0.000000
     5  C   -0.000204   0.003976   0.382005  -0.033563   0.004197  -0.000006
     6  C    0.003785  -0.000132  -0.039620   0.396617  -0.077304  -0.000759
     7  H    0.478833  -0.003696   0.000003  -0.000052  -0.006212  -0.000102
     8  H   -0.003696   0.490664  -0.000041   0.000002  -0.000078   0.000000
     9  H    0.000003  -0.000041   0.488220  -0.004356  -0.000076   0.000000
    10  H   -0.000052   0.000002  -0.004356   0.477876  -0.006243  -0.000104
    11  C   -0.006212  -0.000078  -0.000076  -0.006243   4.955387   0.846790
    12  N   -0.000102   0.000000   0.000000  -0.000104   0.846790   6.748981
    13  N   -0.000022  -0.009923  -0.002114  -0.000017   0.000000   0.000000
    14  C   -0.000002   0.002789  -0.000076   0.000001   0.000000   0.000000
    15  H    0.000009   0.011031   0.000013   0.000000   0.000000   0.000000
    16  C    0.000000   0.000208  -0.000215   0.000000   0.000000   0.000000
    17  H    0.000001   0.000301   0.000214   0.000000   0.000000   0.000000
    18  C    0.000000  -0.000012   0.000275   0.000001   0.000000   0.000000
    19  H    0.000000   0.000000   0.000182   0.000000   0.000000   0.000000
    20  H    0.000000   0.000000   0.004748  -0.000005   0.000000   0.000000
    21  H    0.000000   0.000000   0.000057   0.000000   0.000000   0.000000
    22  C    0.000000  -0.000593  -0.000038   0.000000   0.000000   0.000000
    23  H   -0.000002  -0.000035  -0.000011   0.000000   0.000000   0.000000
    24  H    0.000000   0.000019   0.000043   0.000000   0.000000   0.000000
    25  H    0.000000   0.000033   0.000001   0.000000   0.000000   0.000000
    26  C    0.000000  -0.000136  -0.000005   0.000000   0.000000   0.000000
    27  H    0.000000   0.000003   0.000000   0.000000   0.000000   0.000000
    28  H    0.000000   0.000004   0.000002   0.000000   0.000000   0.000000
    29  C    0.000000  -0.000078   0.000001   0.000000   0.000000   0.000000
    30  H    0.000000   0.000000   0.000000   0.000000   0.000000   0.000000
    31  H    0.000000   0.000027   0.000000   0.000000   0.000000   0.000000
             13         14         15         16         17         18
     1  C   -0.000347   0.000002   0.000003   0.000020  -0.000013  -0.000001
     2  C    0.005290   0.000575  -0.000527  -0.000026  -0.000178   0.000007
     3  C   -0.070445  -0.007891  -0.000923  -0.000909   0.003883  -0.000268
     4  C    0.314703  -0.066776  -0.003842  -0.068322  -0.002208  -0.001032
     5  C   -0.063085   0.002209  -0.000234  -0.001039  -0.000150  -0.000972
     6  C    0.004033  -0.000138   0.000013  -0.000041   0.000066   0.000015
     7  H   -0.000022  -0.000002   0.000009   0.000000   0.000001   0.000000
     8  H   -0.009923   0.002789   0.011031   0.000208   0.000301  -0.000012
     9  H   -0.002114  -0.000076   0.000013  -0.000215   0.000214   0.000275
    10  H   -0.000017   0.000001   0.000000   0.000000   0.000000   0.000001
    11  C    0.000000   0.000000   0.000000   0.000000   0.000000   0.000000
    12  N    0.000000   0.000000   0.000000   0.000000   0.000000   0.000000
    13  N    7.246576   0.264183  -0.050133   0.266018  -0.040745  -0.066321
    14  C    0.264183   5.301936   0.346391  -0.082909   0.001241   0.005507
    15  H   -0.050133   0.346391   0.618249   0.001054   0.001009  -0.000262
    16  C    0.266018  -0.082909   0.001054   5.301763   0.372211   0.268530
    17  H   -0.040745   0.001241   0.001009   0.372211   0.562322  -0.062868
    18  C   -0.066321   0.005507  -0.000262   0.268530  -0.062868   5.398297
    19  H    0.002770   0.000156   0.000027  -0.042893   0.004120   0.362243
    20  H   -0.001497  -0.000021   0.000000  -0.038159  -0.001670   0.362255
    21  H    0.003137  -0.000146   0.000010  -0.037001   0.002442   0.333404
    22  C   -0.058120   0.282770  -0.063019   0.004436  -0.000141  -0.000079
    23  H   -0.002860  -0.037937  -0.003031  -0.000004  -0.000003   0.000003
    24  H    0.003736  -0.041968   0.004711   0.000041   0.000008  -0.000049
    25  H    0.002838  -0.037916   0.002185  -0.000087   0.000003  -0.000001
    26  C   -0.065489   0.269789  -0.047011  -0.090271   0.004909   0.000329
    27  H    0.002639  -0.036881  -0.000967   0.004010  -0.000034  -0.000104
    28  H    0.001408  -0.045705   0.004340   0.000616   0.000021   0.000782
    29  C   -0.051959  -0.089974  -0.002266   0.271819  -0.038074  -0.072566
    30  H    0.002303   0.004224  -0.000119  -0.038764   0.001310  -0.002414
    31  H    0.001178   0.001066   0.002041  -0.039179  -0.004388   0.003559
             19         20         21         22         23         24
     1  C    0.000000   0.000000   0.000000   0.000001  -0.000013   0.000000
     2  C    0.000000  -0.000003   0.000000  -0.000055   0.000063  -0.000003
     3  C    0.000007   0.000038   0.000009  -0.001055   0.001957   0.000039
     4  C    0.000083   0.000971   0.000032  -0.002841   0.003210   0.000375
     5  C   -0.000023   0.001597  -0.000020   0.000253   0.000184  -0.000084
     6  C    0.000002   0.000050   0.000001   0.000022  -0.000023   0.000004
     7  H    0.000000   0.000000   0.000000   0.000000  -0.000002   0.000000
     8  H    0.000000   0.000000   0.000000  -0.000593  -0.000035   0.000019
     9  H    0.000182   0.004748   0.000057  -0.000038  -0.000011   0.000043
    10  H    0.000000  -0.000005   0.000000   0.000000   0.000000   0.000000
    11  C    0.000000   0.000000   0.000000   0.000000   0.000000   0.000000
    12  N    0.000000   0.000000   0.000000   0.000000   0.000000   0.000000
    13  N    0.002770  -0.001497   0.003137  -0.058120  -0.002860   0.003736
    14  C    0.000156  -0.000021  -0.000146   0.282770  -0.037937  -0.041968
    15  H    0.000027   0.000000   0.000010  -0.063019  -0.003031   0.004711
    16  C   -0.042893  -0.038159  -0.037001   0.004436  -0.000004   0.000041
    17  H    0.004120  -0.001670   0.002442  -0.000141  -0.000003   0.000008
    18  C    0.362243   0.362255   0.333404  -0.000079   0.000003  -0.000049
    19  H    0.528681  -0.027558  -0.023795  -0.000101  -0.000001   0.000103
    20  H   -0.027558   0.527221  -0.026296  -0.000001   0.000000   0.000001
    21  H   -0.023795  -0.026296   0.567551  -0.000001   0.000000   0.000002
    22  C   -0.000101  -0.000001  -0.000001   5.360883   0.368037   0.358009
    23  H   -0.000001   0.000000   0.000000   0.368037   0.519103  -0.026540
    24  H    0.000103   0.000001   0.000002   0.358009  -0.026540   0.523957
    25  H    0.000002   0.000000   0.000000   0.348406  -0.028478  -0.023263
    26  C    0.001759  -0.000164   0.000261  -0.058016   0.003826  -0.004429
    27  H   -0.000012   0.000002   0.000003   0.000189  -0.000080   0.000013
    28  H    0.001810  -0.000045   0.000062  -0.004675   0.000023   0.005315
    29  C   -0.003523   0.003892  -0.000981   0.005129  -0.000139  -0.000065
    30  H    0.000579   0.000091   0.001545  -0.000070   0.000001  -0.000003
    31  H    0.000032  -0.000089   0.000003  -0.000058   0.000003   0.000003
             25         26         27         28         29         30
     1  C    0.000000   0.000000   0.000000   0.000000   0.000000   0.000000
     2  C   -0.000002  -0.000004   0.000000   0.000000   0.000003   0.000000
     3  C   -0.000005   0.000070   0.000009  -0.000003  -0.000175   0.000000
     4  C    0.000058   0.005223  -0.000090  -0.000154   0.005024  -0.000059
     5  C   -0.000008  -0.000115   0.000000   0.000003  -0.000001   0.000000
     6  C    0.000000   0.000001   0.000000   0.000000   0.000001   0.000000
     7  H    0.000000   0.000000   0.000000   0.000000   0.000000   0.000000
     8  H    0.000033  -0.000136   0.000003   0.000004  -0.000078   0.000000
     9  H    0.000001  -0.000005   0.000000   0.000002   0.000001   0.000000
    10  H    0.000000   0.000000   0.000000   0.000000   0.000000   0.000000
    11  C    0.000000   0.000000   0.000000   0.000000   0.000000   0.000000
    12  N    0.000000   0.000000   0.000000   0.000000   0.000000   0.000000
    13  N    0.002838  -0.065489   0.002639   0.001408  -0.051959   0.002303
    14  C   -0.037916   0.269789  -0.036881  -0.045705  -0.089974   0.004224
    15  H    0.002185  -0.047011  -0.000967   0.004340  -0.002266  -0.000119
    16  C   -0.000087  -0.090271   0.004010   0.000616   0.271819  -0.038764
    17  H    0.000003   0.004909  -0.000034   0.000021  -0.038074   0.001310
    18  C   -0.000001   0.000329  -0.000104   0.000782  -0.072566  -0.002414
    19  H    0.000002   0.001759  -0.000012   0.001810  -0.003523   0.000579
    20  H    0.000000  -0.000164   0.000002  -0.000045   0.003892   0.000091
    21  H    0.000000   0.000261   0.000003   0.000062  -0.000981   0.001545
    22  C    0.348406  -0.058016   0.000189  -0.004675   0.005129  -0.000070
    23  H   -0.028478   0.003826  -0.000080   0.000023  -0.000139   0.000001
    24  H   -0.023263  -0.004429   0.000013   0.005315  -0.000065  -0.000003
    25  H    0.551815  -0.002736   0.001534   0.000162  -0.000043  -0.000001
    26  C   -0.002736   5.424938   0.374149   0.369823   0.263577  -0.032217
    27  H    0.001534   0.374149   0.524079  -0.026241  -0.033282   0.000320
    28  H    0.000162   0.369823  -0.026241   0.529837  -0.043624  -0.004036
    29  C   -0.000043   0.263577  -0.033282  -0.043624   5.429276   0.379965
    30  H   -0.000001  -0.032217   0.000320  -0.004036   0.379965   0.514792
    31  H   -0.000002  -0.043615  -0.004061   0.003709   0.369496  -0.027944
             31
     1  C    0.000000
     2  C    0.000000
     3  C    0.000012
     4  C   -0.000173
     5  C    0.000003
     6  C    0.000000
     7  H    0.000000
     8  H    0.000027
     9  H    0.000000
    10  H    0.000000
    11  C    0.000000
    12  N    0.000000
    13  N    0.001178
    14  C    0.001066
    15  H    0.002041
    16  C   -0.039179
    17  H   -0.004388
    18  C    0.003559
    19  H    0.000032
    20  H   -0.000089
    21  H    0.000003
    22  C   -0.000058
    23  H    0.000003
    24  H    0.000003
    25  H   -0.000002
    26  C   -0.043615
    27  H   -0.004061
    28  H    0.003709
    29  C    0.369496
    30  H   -0.027944
    31  H    0.538375
 Mulliken atomic charges:
              1
     1  C   -0.000112
     2  C   -0.164202
     3  C   -0.177096
     4  C    0.266648
     5  C   -0.166329
     6  C   -0.164781
     7  H    0.204500
     8  H    0.200335
     9  H    0.204309
    10  H    0.205719
    11  C    0.286437
    12  N   -0.476402
    13  N   -0.637732
    14  C   -0.034497
    15  H    0.181248
    16  C   -0.050909
    17  H    0.196414
    18  C   -0.528258
    19  H    0.195349
    20  H    0.194640
    21  H    0.179722
    22  C   -0.539270
    23  H    0.202748
    24  H    0.200024
    25  H    0.185507
    26  C   -0.374447
    27  H    0.194802
    28  H    0.206566
    29  C   -0.391436
    30  H    0.200497
    31  H    0.200005
 Sum of Mulliken atomic charges =   0.00000
 Mulliken charges with hydrogens summed into heavy atoms:
              1
     1  C   -0.000112
     2  C    0.040298
     3  C    0.023239
     4  C    0.266648
     5  C    0.037980
     6  C    0.040938
    11  C    0.286437
    12  N   -0.476402
    13  N   -0.637732
    14  C    0.146751
    16  C    0.145505
    18  C    0.041453
    22  C    0.049009
    26  C    0.026921
    29  C    0.009065
 Sum of Mulliken charges with hydrogens summed into heavy atoms =   0.00000
 Electronic spatial extent (au):  <R**2>=           3845.7270
 Charge=              0.0000 electrons
 Dipole moment (field-independent basis, Debye):
    X=             -5.4941    Y=             -0.1432    Z=             -0.4227  Tot=              5.5122
 Quadrupole moment (field-independent basis, Debye-Ang):
   XX=           -116.3821   YY=            -86.1835   ZZ=            -88.0621
   XY=              0.9805   XZ=              2.7980   YZ=              3.9085
 Traceless Quadrupole moment (field-independent basis, Debye-Ang):
   XX=            -19.5062   YY=             10.6924   ZZ=              8.8138
   XY=              0.9805   XZ=              2.7980   YZ=              3.9085
 Octapole moment (field-independent basis, Debye-Ang**2):
  XXX=           -230.4533  YYY=             -1.3470  ZZZ=             -0.5717  XYY=             -2.6472
  XXY=              1.4256  XXZ=              7.1296  XZZ=             -0.7080  YZZ=              0.1116
  YYZ=             -0.1374  XYZ=              9.0347
 Hexadecapole moment (field-independent basis, Debye-Ang**3):
 XXXX=          -5320.2529 YYYY=           -831.8141 ZZZZ=           -398.8712 XXXY=             11.0644
 XXXZ=             62.5714 YYYX=              6.5362 YYYZ=              9.4140 ZZZX=             -1.4985
 ZZZY=             13.2977 XXYY=           -781.1149 XXZZ=           -721.2528 YYZZ=           -196.2483
 XXYZ=             21.4933 YYXZ=              5.3801 ZZXY=              0.1718
 N-N= 9.508526154799D+02 E-N=-3.317649763130D+03  KE= 6.066707718759D+02
 1|1|UNPC-DESKTOP-K2VF0AK|SP|RTD-B3LYP-FC|3-21G|C13H16N2|MELIH|25-Dec-2
 024|0||# td b3lyp/3-21g geom=connectivity||Title Card Required||0,1|C,
 0,2.94381184,0.01053389,-0.05572222|C,0,2.1885727,-0.74427948,-0.94256
 15|C,0,0.80990428,-0.72329899,-0.86386122|C,0,0.163476,0.043438,0.0938
 05|C,0,0.92900198,0.79610661,0.97794438|C,0,2.30612234,0.78367325,0.90
 743519|H,0,2.6805883,-1.33915421,-1.6850488|H,0,0.21457734,-1.29695239
 ,-1.54247341|H,0,0.44211969,1.39229429,1.72322395|H,0,2.89045295,1.365
 5856,1.59108791|C,0,4.37006762,-0.00590427,-0.13175298|N,0,5.50898283,
 -0.01880494,-0.19223502|N,0,-1.259118,0.036553,0.150572|C,0,-1.969161,
 -1.24396,-0.077977|H,0,-1.652315,-1.708624,-1.010599|C,0,-1.98448,1.18
 4319,-0.468042|H,0,-1.399115,1.608847,-1.275969|C,0,-2.251547,2.256651
 ,0.590599|H,0,-2.858072,1.841126,1.385936|H,0,-1.318833,2.60494,1.0189
 95|H,0,-2.767942,3.106202,0.156102|C,0,-1.747116,-2.212659,1.082882|H,
 0,-0.702685,-2.48965,1.163893|H,0,-2.050929,-1.737304,2.007203|H,0,-2.
 328416,-3.117046,0.938459|C,0,-3.422471,-0.765521,-0.214186|H,0,-4.050
 793,-1.49699,-0.704997|H,0,-3.820844,-0.560475,0.772001|C,0,-3.285248,
 0.543101,-1.017362|H,0,-4.137949,1.19852,-0.902346|H,0,-3.168898,0.310
 313,-2.069731||Version=IA32W-G09RevA.02|State=1-A|HF=-611.1483886|RMSD
 =3.169e-009|PG=C01 [X(C13H16N2)]||@


 EDUCATION DOESN'T COST 
           ... IT PAYS!

 -- POSTMARK, UNIV. OF MISSISSIPPI, DEC 78
 Job cpu time:  0 days  0 hours  5 minutes 44.0 seconds.
 File lengths (MBytes):  RWF=     64 Int=      0 D2E=      0 Chk=      5 Scr=      1
 Normal termination of Gaussian 09 at Wed Dec 25 20:14:25 2024.
