 Entering Link 1 = C:\G09W\l1.exe PID=     19928.
  
 Copyright (c) 1988,1990,1992,1993,1995,1998,2003,2009, Gaussian, Inc.
                  All Rights Reserved.
  
 This is part of the Gaussian(R) 09 program.  It is based on
 the Gaussian(R) 03 system (copyright 2003, Gaussian, Inc.),
 the Gaussian(R) 98 system (copyright 1998, Gaussian, Inc.),
 the Gaussian(R) 94 system (copyright 1995, Gaussian, Inc.),
 the Gaussian 92(TM) system (copyright 1992, Gaussian, Inc.),
 the Gaussian 90(TM) system (copyright 1990, Gaussian, Inc.),
 the Gaussian 88(TM) system (copyright 1988, Gaussian, Inc.),
 the Gaussian 86(TM) system (copyright 1986, Carnegie Mellon
 University), and the Gaussian 82(TM) system (copyright 1983,
 Carnegie Mellon University). Gaussian is a federally registered
 trademark of Gaussian, Inc.
  
 This software contains proprietary and confidential information,
 including trade secrets, belonging to Gaussian, Inc.
  
 This software is provided under written license and may be
 used, copied, transmitted, or stored only in accord with that
 written license.
  
 The following legend is applicable only to US Government
 contracts under FAR:
  
                    RESTRICTED RIGHTS LEGEND
  
 Use, reproduction and disclosure by the US Government is
 subject to restrictions as set forth in subparagraphs (a)
 and (c) of the Commercial Computer Software - Restricted
 Rights clause in FAR 52.227-19.
  
 Gaussian, Inc.
 340 Quinnipiac St., Bldg. 40, Wallingford CT 06492
  
  
 ---------------------------------------------------------------
 Warning -- This program may not be used in any manner that
 competes with the business of Gaussian, Inc. or will provide
 assistance to any competitor of Gaussian, Inc.  The licensee
 of this program is prohibited from giving any competitor of
 Gaussian, Inc. access to this program.  By using this program,
 the user acknowledges that Gaussian, Inc. is engaged in the
 business of creating and licensing software in the field of
 computational chemistry and represents and warrants to the
 licensee that it is not a competitor of Gaussian, Inc. and that
 it will not use this program in any manner prohibited above.
 ---------------------------------------------------------------
  

 Cite this work as:
 Gaussian 09, Revision A.02,
 M. J. Frisch, G. W. Trucks, H. B. Schlegel, G. E. Scuseria, 
 M. A. Robb, J. R. Cheeseman, G. Scalmani, V. Barone, B. Mennucci, 
 G. A. Petersson, H. Nakatsuji, M. Caricato, X. Li, H. P. Hratchian, 
 A. F. Izmaylov, J. Bloino, G. Zheng, J. L. Sonnenberg, M. Hada, 
 M. Ehara, K. Toyota, R. Fukuda, J. Hasegawa, M. Ishida, T. Nakajima, 
 Y. Honda, O. Kitao, H. Nakai, T. Vreven, J. A. Montgomery, Jr., 
 J. E. Peralta, F. Ogliaro, M. Bearpark, J. J. Heyd, E. Brothers, 
 K. N. Kudin, V. N. Staroverov, R. Kobayashi, J. Normand, 
 K. Raghavachari, A. Rendell, J. C. Burant, S. S. Iyengar, J. Tomasi, 
 M. Cossi, N. Rega, J. M. Millam, M. Klene, J. E. Knox, J. B. Cross, 
 V. Bakken, C. Adamo, J. Jaramillo, R. Gomperts, R. E. Stratmann, 
 O. Yazyev, A. J. Austin, R. Cammi, C. Pomelli, J. W. Ochterski, 
 R. L. Martin, K. Morokuma, V. G. Zakrzewski, G. A. Voth, 
 P. Salvador, J. J. Dannenberg, S. Dapprich, A. D. Daniels, 
 O. Farkas, J. B. Foresman, J. V. Ortiz, J. Cioslowski, 
 and D. J. Fox, Gaussian, Inc., Wallingford CT, 2009.
 
 ******************************************
 Gaussian 09:  IA32W-G09RevA.02 11-Jun-2009
                25-Dec-2024 
 ******************************************
 %chk=C:\G09W\Hw5\ENERGY340.chk
 ----------------------------------
 # td b3lyp/3-21g geom=connectivity
 ----------------------------------
 1/38=1,57=2/1;
 2/12=2,17=6,18=5,40=1/2;
 3/5=5,11=2,16=1,25=1,30=1,74=-5/1,2,8,3;
 4//1;
 5/5=2,38=5/2;
 8/6=1,10=1/1;
 9/42=1/14;
 6/7=2,8=2,9=2,10=2/1;
 99/5=1,9=1/99;
 -------------------
 Title Card Required
 -------------------
 Symbolic Z-matrix:
 Charge =  0 Multiplicity = 1
 C                    -2.94408  -0.03218  -0.05736 
 C                    -2.22575   1.13093  -0.29776 
 C                    -0.84638   1.11437  -0.23127 
 C                    -0.16276  -0.05254   0.0751 
 C                    -0.89147  -1.21267   0.31452 
 C                    -2.2689   -1.20781   0.2494 
 H                    -2.74663   2.0363   -0.53492 
 H                    -0.27917   2.00186  -0.41739 
 H                    -0.37565  -2.12095   0.55305 
 H                    -2.82478  -2.10454   0.43467 
 C                    -4.37082  -0.0225   -0.12504 
 N                    -5.51011  -0.01508  -0.17904 
 N                     1.25929  -0.03215   0.14151 
 C                     1.9836    1.05694  -0.55519 
 H                     1.67936   1.12732  -1.59854 
 C                     1.97891  -1.33375   0.02235 
 H                     1.39653  -2.034    -0.56595 
 C                     2.22642  -1.91576   1.41589 
 H                     2.82998  -1.22879   1.99629 
 H                     1.2867   -2.06652   1.93453 
 H                     2.73836  -2.87003   1.34902 
 C                     1.76081   2.39988   0.13918 
 H                     0.71843   2.69245   0.09474 
 H                     2.05198   2.31651   1.17884 
 H                     2.35203   3.17519  -0.33626 
 C                     3.43336   0.55497  -0.47912 
 H                     4.07294   1.03679  -1.2068 
 H                     3.82115   0.7443    0.51439 
 C                     3.29052  -0.96148  -0.71657 
 H                     4.13584  -1.52641  -0.34751 
 H                     3.18557  -1.15234  -1.77854 
 
                          Input orientation:                          
 ---------------------------------------------------------------------
 Center     Atomic      Atomic             Coordinates (Angstroms)
 Number     Number       Type             X           Y           Z
 ---------------------------------------------------------------------
      1          6           0       -2.944080   -0.032181   -0.057360
      2          6           0       -2.225752    1.130930   -0.297756
      3          6           0       -0.846380    1.114368   -0.231269
      4          6           0       -0.162757   -0.052542    0.075098
      5          6           0       -0.891471   -1.212671    0.314519
      6          6           0       -2.268904   -1.207810    0.249401
      7          1           0       -2.746625    2.036295   -0.534924
      8          1           0       -0.279173    2.001859   -0.417391
      9          1           0       -0.375651   -2.120947    0.553053
     10          1           0       -2.824777   -2.104539    0.434672
     11          6           0       -4.370817   -0.022495   -0.125039
     12          7           0       -5.510108   -0.015079   -0.179035
     13          7           0        1.259289   -0.032149    0.141505
     14          6           0        1.983597    1.056937   -0.555188
     15          1           0        1.679363    1.127315   -1.598536
     16          6           0        1.978910   -1.333745    0.022352
     17          1           0        1.396526   -2.034000   -0.565948
     18          6           0        2.226418   -1.915760    1.415886
     19          1           0        2.829983   -1.228787    1.996294
     20          1           0        1.286703   -2.066515    1.934530
     21          1           0        2.738362   -2.870030    1.349025
     22          6           0        1.760813    2.399880    0.139176
     23          1           0        0.718434    2.692447    0.094742
     24          1           0        2.051985    2.316506    1.178841
     25          1           0        2.352033    3.175186   -0.336265
     26          6           0        3.433360    0.554968   -0.479124
     27          1           0        4.072943    1.036787   -1.206801
     28          1           0        3.821150    0.744304    0.514394
     29          6           0        3.290520   -0.961485   -0.716571
     30          1           0        4.135835   -1.526410   -0.347513
     31          1           0        3.185572   -1.152339   -1.778537
 ---------------------------------------------------------------------
                    Distance matrix (angstroms):
                    1          2          3          4          5
     1  C    0.000000
     2  C    1.388025   0.000000
     3  C    2.396907   1.381073   0.000000
     4  C    2.784550   2.407400   1.386680   0.000000
     5  C    2.396884   2.765439   2.390613   1.390772   0.000000
     6  C    1.389989   2.402280   2.765344   2.408502   1.378980
     7  H    2.132053   1.071094   2.133796   3.378127   3.836526
     8  H    3.371746   2.135884   1.069582   2.115812   3.353178
     9  H    3.366359   3.836855   3.362144   2.133557   1.071417
    10  H    2.133306   3.370985   3.836521   3.380286   2.132496
    11  C    1.428374   2.441623   3.704780   4.212924   3.703455
    12  N    2.568968   3.480578   4.798827   5.353518   4.796835
    13  N    4.208071   3.700164   2.426377   1.423742   2.459540
    14  C    5.071095   4.217862   2.849033   2.497006   3.764774
    15  H    5.009578   4.116061   2.872101   2.754363   3.967934
    16  C    5.092765   4.884288   3.746978   2.496197   2.887751
    17  H    4.806954   4.817635   3.880059   2.601630   2.585485
    18  C    5.696698   5.660451   4.619186   3.313223   3.380617
    19  H    6.244130   6.032527   4.895718   3.745802   4.083852
    20  H    5.099575   5.248247   4.399858   3.100727   2.845686
    21  H    6.505494   6.584982   5.587766   4.240002   4.122224
    22  C    5.299959   4.206405   2.930397   3.117467   4.485073
    23  H    4.567356   3.355685   2.246166   2.883028   4.229663
    24  H    5.657312   4.678136   3.440067   3.425743   4.676117
    25  H    6.197887   5.013640   3.806290   4.112374   5.495192
    26  C    6.418284   5.691237   4.323255   3.688941   4.739048
    27  H    7.190446   6.364651   5.015717   4.557527   5.658611
    28  H    6.833606   6.113435   4.741181   4.086497   5.106711
    29  C    6.337855   5.914632   4.653883   3.657601   4.314545
    30  H    7.241693   6.894471   5.640008   4.563856   5.080406
    31  H    6.464505   6.057099   4.877359   3.982062   4.583317
                    6          7          8          9         10
     6  C    0.000000
     7  H    3.371587   0.000000
     8  H    3.834790   2.470490   0.000000
     9  H    2.123777   4.907940   4.236579   0.000000
    10  H    1.071188   4.253555   4.905978   2.452040   0.000000
    11  C    2.441970   2.654171   4.574388   4.563405   2.653003
    12  N    3.480168   3.460004   5.611375   5.597614   3.457381
    13  N    3.720479   4.558877   2.610827   2.684302   4.589155
    14  C    4.884691   4.830585   2.456012   4.110133   5.839110
    15  H    4.945350   4.641862   2.448630   4.404954   5.904751
    16  C    4.255741   5.830815   4.051983   2.538757   4.882575
    17  H    3.844836   5.808095   4.372435   2.097698   4.338850
    18  C    4.697850   6.644964   4.998662   2.749063   5.149076
    19  H    5.389872   6.940200   5.092131   3.626980   5.931434
    20  H    4.027329   6.260910   4.953299   2.162143   4.376675
    21  H    5.389328   7.596471   5.996753   3.300268   5.689511
    22  C    5.409824   4.572046   2.151681   5.017335   6.434652
    23  H    4.915294   3.582408   1.316971   4.957402   5.973355
    24  H    5.652852   5.103152   2.842755   5.096667   6.624366
    25  H    6.395836   5.228083   2.882104   6.023303   7.434326
    26  C    6.012815   6.355286   3.984998   4.768068   6.860924
    27  H    6.883150   6.925095   4.527189   5.732221   7.755056
    28  H    6.400760   6.775395   4.388886   5.081761   7.231225
    29  C    5.648095   6.742908   4.649046   4.049335   6.326832
    30  H    6.440380   7.752177   5.652067   4.638750   7.028241
    31  H    5.819529   6.848716   4.879153   4.365412   6.475281
                   11         12         13         14         15
    11  C    0.000000
    12  N    1.140594   0.000000
    13  N    5.636420   6.777003   0.000000
    14  C    6.459781   7.579335   1.481928   0.000000
    15  H    6.332293   7.416774   2.132735   1.089075   0.000000
    16  C    6.485378   7.606893   1.492047   2.459458   2.962064
    17  H    6.123953   7.206063   2.127611   3.146213   3.337686
    18  C    7.034373   8.124666   2.471310   3.575055   4.318138
    19  H    7.603072   8.704152   2.709107   3.528592   4.449488
    20  H    6.358253   7.407576   2.711888   4.054665   4.778837
    21  H    7.798830   8.861319   3.420428   4.429082   5.078224
    22  C    6.598075   7.668088   2.483203   1.528159   2.155388
    23  H    5.772321   6.797087   2.778153   2.167474   2.498042
    24  H    6.958693   8.029032   2.687120   2.144306   3.044149
    25  H    7.447583   8.486211   3.421893   2.161170   2.497917
    26  C    7.833519   8.966639   2.335909   1.536090   2.158048
    27  H    8.578424   9.695235   3.298060   2.188692   2.427113
    28  H    8.252586   9.387752   2.702787   2.149034   3.032890
    29  C    7.741299   8.867677   2.392877   2.410004   2.781506
    30  H    8.641434   9.765077   3.278181   3.368819   3.826431
    31  H    7.817264   8.914405   2.941420   2.796824   2.738227
                   16         17         18         19         20
    16  C    0.000000
    17  H    1.084262   0.000000
    18  C    1.530340   2.151829   0.000000
    19  H    2.152159   3.044380   1.083095   0.000000
    20  H    2.161603   2.503100   1.083874   1.757076   0.000000
    21  H    2.167256   2.483262   1.084983   1.766644   1.759479
    22  C    3.741814   4.504353   4.524547   4.214171   4.837020
    23  H    4.219510   4.820334   5.025436   4.842583   5.133758
    24  H    3.829770   4.732950   4.242486   3.720566   4.513047
    25  H    4.538534   5.301072   5.385494   5.006420   5.810927
    26  C    2.436008   3.295297   3.339500   3.110230   4.160052
    27  H    3.393407   4.123546   4.359550   4.115531   5.221262
    28  H    2.820327   3.842513   3.229829   2.659234   4.042389
    29  C    1.550776   2.181786   2.567164   2.764631   3.502102
    30  H    2.196872   2.794490   2.628126   2.699493   3.690120
    31  H    2.175348   2.334177   3.421568   3.792312   4.269460
                   21         22         23         24         25
    21  H    0.000000
    22  C    5.494660   0.000000
    23  H    6.049338   1.083570   0.000000
    24  H    5.234523   1.082883   1.759250   0.000000
    25  H    6.287614   1.084751   1.757114   1.767175   0.000000
    26  C    3.944079   2.565816   3.502708   2.785689   2.838172
    27  H    4.855571   3.002602   3.960802   3.378349   2.879603
    28  H    3.864252   2.669590   3.687576   2.458303   2.964981
    29  C    2.866027   3.790921   4.541484   3.983941   4.258807
    30  H    2.576138   4.614472   5.447291   4.630356   5.028626
    31  H    3.596123   4.280866   4.937441   4.697232   4.637069
                   26         27         28         29         30
    26  C    0.000000
    27  H    1.082003   0.000000
    28  H    1.083193   1.763933   0.000000
    29  C    1.541561   2.201272   2.169461   0.000000
    30  H    2.200665   2.704129   2.449092   1.081620   0.000000
    31  H    2.159807   2.430346   3.042819   1.084071   1.758056
                   31
    31  H    0.000000
 Stoichiometry    C13H16N2
 Framework group  C1[X(C13H16N2)]
 Deg. of freedom    87
 Full point group                 C1      NOp   1
 Largest Abelian subgroup         C1      NOp   1
 Largest concise Abelian subgroup C1      NOp   1
                         Standard orientation:                         
 ---------------------------------------------------------------------
 Center     Atomic      Atomic             Coordinates (Angstroms)
 Number     Number       Type             X           Y           Z
 ---------------------------------------------------------------------
      1          6           0       -2.944427   -0.042405   -0.051657
      2          6           0       -2.247188    1.157330   -0.018382
      3          6           0       -0.867466    1.150313    0.042260
      4          6           0       -0.162627   -0.043502    0.072056
      5          6           0       -0.870305   -1.240295    0.038520
      6          6           0       -2.247882   -1.244944   -0.023481
      7          1           0       -2.784521    2.083616   -0.040984
      8          1           0       -0.316365    2.066706    0.065027
      9          1           0       -0.337968   -2.169817    0.061783
     10          1           0       -2.787495   -2.169930   -0.049201
     11          6           0       -4.371394   -0.042642   -0.115032
     12          7           0       -5.510864   -0.043152   -0.165666
     13          7           0        1.259129   -0.013786    0.141108
     14          6           0        1.961680    1.218895   -0.286713
     15          1           0        1.651858    1.521796   -1.285885
     16          6           0        2.000465   -1.240226   -0.274189
     17          1           0        1.427692   -1.796705   -1.007595
     18          6           0        2.263835   -2.122472    0.948193
     19          1           0        2.857981   -1.576728    1.670861
     20          1           0        1.329055   -2.404978    1.418468
     21          1           0        2.791789   -3.026628    0.663667
     22          6           0        1.718835    2.362147    0.697804
     23          1           0        0.671410    2.638624    0.722007
     24          1           0        2.015803    2.047215    1.690408
     25          1           0        2.294642    3.236295    0.413206
     26          6           0        3.420152    0.738586   -0.328343
     27          1           0        4.048280    1.385978   -0.925896
     28          1           0        3.808850    0.701334    0.682020
     29          6           0        3.302348   -0.684979   -0.907996
     30          1           0        4.158790   -1.304572   -0.678839
     31          1           0        3.196183   -0.628473   -1.985375
 ---------------------------------------------------------------------
 Rotational constants (GHZ):      1.4266422      0.3291765      0.2817790
 Standard basis: 3-21G (6D, 7F)
 There are   167 symmetry adapted basis functions of A   symmetry.
 Integral buffers will be    262144 words long.
 Raffenetti 2 integral format.
 Two-electron integral symmetry is turned on.
   167 basis functions,   273 primitive gaussians,   167 cartesian basis functions
    54 alpha electrons       54 beta electrons
       nuclear repulsion energy       953.9634523568 Hartrees.
 NAtoms=   31 NActive=   31 NUniq=   31 SFac= 7.50D-01 NAtFMM=   80 NAOKFM=F Big=F
 One-electron integrals computed using PRISM.
 NBasis=   167 RedAO= T  NBF=   167
 NBsUse=   167 1.00D-06 NBFU=   167
 Harris functional with IExCor=  402 diagonalized for initial guess.
 ExpMin= 1.83D-01 ExpMax= 2.43D+02 ExpMxC= 2.43D+02 IAcc=1 IRadAn=         1 AccDes= 0.00D+00
 HarFok:  IExCor=  402 AccDes= 0.00D+00 IRadAn=         1 IDoV= 1
 ScaDFX=  1.000000  1.000000  1.000000  1.000000
 FoFCou: FMM=F IPFlag=           0 FMFlag=      100000 FMFlg1=           0
         NFxFlg=           0 DoJE=T BraDBF=F KetDBF=T FulRan=T
         Omega=  0.000000  0.000000  1.000000  0.000000  0.000000 ICntrl=     500 IOpCl=  0
         NMat0=    1 NMatS0=    1 NMatT0=    0 NMatD0=    1 NMtDS0=    0 NMtDT0=    0
         I1Cent=           4 NGrid=           0.
 Petite list used in FoFCou.
 Initial guess orbital symmetries:
       Occupied  (A) (A) (A) (A) (A) (A) (A) (A) (A) (A) (A) (A)
                 (A) (A) (A) (A) (A) (A) (A) (A) (A) (A) (A) (A)
                 (A) (A) (A) (A) (A) (A) (A) (A) (A) (A) (A) (A)
                 (A) (A) (A) (A) (A) (A) (A) (A) (A) (A) (A) (A)
                 (A) (A) (A) (A) (A) (A)
       Virtual   (A) (A) (A) (A) (A) (A) (A) (A) (A) (A) (A) (A)
                 (A) (A) (A) (A) (A) (A) (A) (A) (A) (A) (A) (A)
                 (A) (A) (A) (A) (A) (A) (A) (A) (A) (A) (A) (A)
                 (A) (A) (A) (A) (A) (A) (A) (A) (A) (A) (A) (A)
                 (A) (A) (A) (A) (A) (A) (A) (A) (A) (A) (A) (A)
                 (A) (A) (A) (A) (A) (A) (A) (A) (A) (A) (A) (A)
                 (A) (A) (A) (A) (A) (A) (A) (A) (A) (A) (A) (A)
                 (A) (A) (A) (A) (A) (A) (A) (A) (A) (A) (A) (A)
                 (A) (A) (A) (A) (A) (A) (A) (A) (A) (A) (A) (A)
                 (A) (A) (A) (A) (A)
 The electronic state of the initial guess is 1-A.
 Requested convergence on RMS density matrix=1.00D-08 within 128 cycles.
 Requested convergence on MAX density matrix=1.00D-06.
 Requested convergence on             energy=1.00D-06.
 No special actions if energy rises.
 Integral accuracy reduced to 1.0D-05 until final iterations.
 Initial convergence to 1.0D-05 achieved.  Increase integral accuracy.
 SCF Done:  E(RB3LYP) =  -611.138010250     A.U. after   16 cycles
             Convg  =    0.4539D-08             -V/T =  2.0073
 ExpMin= 1.83D-01 ExpMax= 2.43D+02 ExpMxC= 2.43D+02 IAcc=1 IRadAn=         1 AccDes= 0.00D+00
 HarFok:  IExCor=  205 AccDes= 0.00D+00 IRadAn=         1 IDoV=-2
 ScaDFX=  1.000000  1.000000  1.000000  1.000000
 Range of M.O.s used for correlation:    16   167
 NBasis=   167 NAE=    54 NBE=    54 NFC=    15 NFV=     0
 NROrb=    152 NOA=    39 NOB=    39 NVA=   113 NVB=   113
 Would need an additional   268100000 words for in-memory AO integral storage.
 Orbital symmetries:
       Occupied  (A) (A) (A) (A) (A) (A) (A) (A) (A) (A) (A) (A)
                 (A) (A) (A) (A) (A) (A) (A) (A) (A) (A) (A) (A)
                 (A) (A) (A) (A) (A) (A) (A) (A) (A) (A) (A) (A)
                 (A) (A) (A) (A) (A) (A) (A) (A) (A) (A) (A) (A)
                 (A) (A) (A) (A) (A) (A)
       Virtual   (A) (A) (A) (A) (A) (A) (A) (A) (A) (A) (A) (A)
                 (A) (A) (A) (A) (A) (A) (A) (A) (A) (A) (A) (A)
                 (A) (A) (A) (A) (A) (A) (A) (A) (A) (A) (A) (A)
                 (A) (A) (A) (A) (A) (A) (A) (A) (A) (A) (A) (A)
                 (A) (A) (A) (A) (A) (A) (A) (A) (A) (A) (A) (A)
                 (A) (A) (A) (A) (A) (A) (A) (A) (A) (A) (A) (A)
                 (A) (A) (A) (A) (A) (A) (A) (A) (A) (A) (A) (A)
                 (A) (A) (A) (A) (A) (A) (A) (A) (A) (A) (A) (A)
                 (A) (A) (A) (A) (A) (A) (A) (A) (A) (A) (A) (A)
                 (A) (A) (A) (A) (A)
    12 initial guesses have been made.
 Convergence on wavefunction:    0.001000000000000
 Iteration     1 Dimension    12 NMult    12
 CISAX will form    12 AO SS matrices at one time.
 New state      1 was old state      2
 New state      2 was old state      1
 Iteration     2 Dimension    18 NMult    18
 Iteration     3 Dimension    24 NMult    24
 Iteration     4 Dimension    30 NMult    30
 Iteration     5 Dimension    34 NMult    34
 Iteration     6 Dimension    36 NMult    36
 ***********************************************************************
 Excited states from <AA,BB:AA,BB> singles matrix:
 ***********************************************************************
 
 Ground to excited state transition electric dipole moments (Au):
       state          X           Y           Z        Dip. S.      Osc.
         1         0.0744     -0.4002     -0.0153      0.1659      0.0189
         2         2.0386      0.0125      0.0113      4.1561      0.4982
         3         0.1001      0.4858      0.0100      0.2461      0.0368
 Ground to excited state transition velocity dipole moments (Au):
       state          X           Y           Z        Dip. S.      Osc.
         1        -0.0101      0.0590      0.0039      0.0036      0.0141
         2        -0.2989     -0.0035      0.0048      0.0894      0.3314
         3        -0.0186     -0.0900     -0.0027      0.0085      0.0251
 Ground to excited state transition magnetic dipole moments (Au):
       state          X           Y           Z
         1         0.0359      0.0061     -0.7876
         2         0.0154     -0.0442     -0.0339
         3        -0.0233     -0.0108      0.4938
 <0|del|b> * <b|rxdel|0> + <0|del|b> * <b|delr+rdel|0>
 Rotatory Strengths (R) in cgs (10**-40 erg-esu-cm/Gauss)
       state          XX          YY          ZZ    R(velocity)
         1        -8.7518     -6.0689      1.9411     -4.2932
 Total R(velocity) tensor for State=          1
                 1             2             3 
      1  -0.875181D+01 -0.728760D+00 -0.114410D+02
      2  -0.346933D+01 -0.606889D+01  0.819393D+02
      3  -0.764348D+00 -0.260181D+00  0.194114D+01
 R(velocity) tensor in inp. orien. for State=          1
                 1             2             3 
      1  -0.882316D+01 -0.295889D+01 -0.956907D+01
      2  -0.352106D+01  0.127419D+02  0.795765D+02
      3   0.396264D-01 -0.279835D+01 -0.167983D+02
         2         1.0550    -27.5544      8.3404     -6.0530
 Total R(velocity) tensor for State=          2
                 1             2             3 
      1   0.105496D+01 -0.949379D+02 -0.358574D+01
      2  -0.254396D+01 -0.275544D+02 -0.177013D+03
      3  -0.601012D+00  0.627865D+02  0.834039D+01
 R(velocity) tensor in inp. orien. for State=          2
                 1             2             3 
      1  -0.675512D+00 -0.944130D+02  0.153998D+02
      2  -0.278965D+01 -0.495555D+02 -0.163248D+03
      3   0.117999D+01  0.764442D+02  0.320720D+02
         3        -3.3582     -0.7039      4.3221      0.0867
 Total R(velocity) tensor for State=          3
                 1             2             3 
      1  -0.335823D+01  0.350117D+00  0.115467D+02
      2  -0.183043D+00 -0.703918D+00  0.248990D+02
      3  -0.272813D+01  0.435108D+00  0.432213D+01
 R(velocity) tensor in inp. orien. for State=          3
                 1             2             3 
      1  -0.335617D+01  0.314094D+01  0.115714D+02
      2  -0.762594D+00  0.519008D+01  0.244864D+02
      3  -0.261621D+01  0.278733D+00 -0.157392D+01
 1/2[<0|r|b>*<b|rxdel|0> + (<0|rxdel|b>*<b|r|0>)*]
 Rotatory Strengths (R) in cgs (10**-40 erg-esu-cm/Gauss)
       state          XX          YY          ZZ     R(length)     R(au)
         1        -1.8882      1.7137     -8.5206     -2.8983     -0.0061
         2       -22.2221      0.3896      0.2719     -7.1869     -0.0152
         3         1.6482      3.7148     -3.4940      0.6230      0.0013
  1/2[<0|del|b>*<b|r|0> + (<0|r|b>*<b|del|0>)*] (Au)
       state          X           Y           Z        Dip. S.   Osc.(frdel)
         1        -0.0007     -0.0236     -0.0001      0.0244      0.0163
         2        -0.6094      0.0000      0.0001      0.6094      0.4063
         3        -0.0019     -0.0437      0.0000      0.0456      0.0304
 Ground to excited state transition densities written to RWF  633

 Excitation energies and oscillator strengths:
 
 Excited State   1:      Singlet-A      4.6493 eV  266.67 nm  f=0.0189  <S**2>=0.000
      53 -> 55         0.19487
      54 -> 56         0.67566
 This state for optimization and/or second-order correction.
 Copying the excited state density for this state as the 1-particle RhoCI density.
 
 Excited State   2:      Singlet-A      4.8930 eV  253.39 nm  f=0.4982  <S**2>=0.000
      53 -> 56        -0.10877
      54 -> 55         0.69157
 
 Excited State   3:      Singlet-A      6.1097 eV  202.93 nm  f=0.0368  <S**2>=0.000
      52 -> 56        -0.40162
      53 -> 55         0.55870
      54 -> 56        -0.14811
 SavETr:  write IOETrn=   770 NScale= 10 NData=  16 NLR=1 LETran=      62.

 **********************************************************************

            Population analysis using the SCF density.

 **********************************************************************

 Orbital symmetries:
       Occupied  (A) (A) (A) (A) (A) (A) (A) (A) (A) (A) (A) (A)
                 (A) (A) (A) (A) (A) (A) (A) (A) (A) (A) (A) (A)
                 (A) (A) (A) (A) (A) (A) (A) (A) (A) (A) (A) (A)
                 (A) (A) (A) (A) (A) (A) (A) (A) (A) (A) (A) (A)
                 (A) (A) (A) (A) (A) (A)
       Virtual   (A) (A) (A) (A) (A) (A) (A) (A) (A) (A) (A) (A)
                 (A) (A) (A) (A) (A) (A) (A) (A) (A) (A) (A) (A)
                 (A) (A) (A) (A) (A) (A) (A) (A) (A) (A) (A) (A)
                 (A) (A) (A) (A) (A) (A) (A) (A) (A) (A) (A) (A)
                 (A) (A) (A) (A) (A) (A) (A) (A) (A) (A) (A) (A)
                 (A) (A) (A) (A) (A) (A) (A) (A) (A) (A) (A) (A)
                 (A) (A) (A) (A) (A) (A) (A) (A) (A) (A) (A) (A)
                 (A) (A) (A) (A) (A) (A) (A) (A) (A) (A) (A) (A)
                 (A) (A) (A) (A) (A) (A) (A) (A) (A) (A) (A) (A)
                 (A) (A) (A) (A) (A)
 The electronic state is 1-A.
 Alpha  occ. eigenvalues --  -14.27580 -14.23320 -10.17896 -10.17027 -10.16873
 Alpha  occ. eigenvalues --  -10.15625 -10.14485 -10.14250 -10.14156 -10.13242
 Alpha  occ. eigenvalues --  -10.13219 -10.13171 -10.12637 -10.11714 -10.11476
 Alpha  occ. eigenvalues --   -0.96519  -0.92198  -0.87930  -0.81516  -0.80076
 Alpha  occ. eigenvalues --   -0.76543  -0.75567  -0.72874  -0.66298  -0.64859
 Alpha  occ. eigenvalues --   -0.64137  -0.59128  -0.58015  -0.56948  -0.53678
 Alpha  occ. eigenvalues --   -0.50082  -0.48963  -0.47433  -0.46974  -0.45244
 Alpha  occ. eigenvalues --   -0.43589  -0.43011  -0.41679  -0.41110  -0.40563
 Alpha  occ. eigenvalues --   -0.39755  -0.38799  -0.38118  -0.37731  -0.35565
 Alpha  occ. eigenvalues --   -0.34927  -0.34327  -0.34101  -0.33635  -0.33074
 Alpha  occ. eigenvalues --   -0.32302  -0.28446  -0.26750  -0.20565
 Alpha virt. eigenvalues --   -0.01823  -0.00789   0.06592   0.09080   0.10317
 Alpha virt. eigenvalues --    0.10820   0.12149   0.12479   0.13339   0.15008
 Alpha virt. eigenvalues --    0.15614   0.16205   0.16929   0.18015   0.18453
 Alpha virt. eigenvalues --    0.18799   0.20056   0.20215   0.20524   0.20744
 Alpha virt. eigenvalues --    0.21877   0.23316   0.23820   0.25081   0.26131
 Alpha virt. eigenvalues --    0.26708   0.28669   0.28790   0.31312   0.34252
 Alpha virt. eigenvalues --    0.36319   0.37249   0.39398   0.40172   0.52151
 Alpha virt. eigenvalues --    0.54999   0.60714   0.63875   0.66322   0.66672
 Alpha virt. eigenvalues --    0.67390   0.68669   0.69725   0.70962   0.71184
 Alpha virt. eigenvalues --    0.72044   0.72718   0.73472   0.75127   0.76322
 Alpha virt. eigenvalues --    0.77172   0.77847   0.78460   0.78910   0.79912
 Alpha virt. eigenvalues --    0.80324   0.81737   0.84642   0.86593   0.87883
 Alpha virt. eigenvalues --    0.88891   0.90877   0.93199   0.94396   0.94771
 Alpha virt. eigenvalues --    0.96424   0.96900   0.99270   1.00286   1.01232
 Alpha virt. eigenvalues --    1.02512   1.04420   1.05975   1.07302   1.07761
 Alpha virt. eigenvalues --    1.08057   1.09269   1.10300   1.11912   1.13552
 Alpha virt. eigenvalues --    1.14421   1.16465   1.17577   1.19767   1.21754
 Alpha virt. eigenvalues --    1.22773   1.24590   1.28904   1.30531   1.31809
 Alpha virt. eigenvalues --    1.33438   1.35089   1.41774   1.44063   1.49914
 Alpha virt. eigenvalues --    1.51896   1.52195   1.54572   1.54880   1.61985
 Alpha virt. eigenvalues --    1.74319   1.78345   1.79578   1.90469   1.93113
 Alpha virt. eigenvalues --    1.97118   2.02198   2.19101   2.31767   2.42148
 Alpha virt. eigenvalues --    2.51631   3.00781   3.04646
          Condensed to atoms (all electrons):
              1          2          3          4          5          6
     1  C    5.444565   0.448843  -0.088030  -0.031971  -0.086515   0.449544
     2  C    0.448843   5.111636   0.455933  -0.056907  -0.034920  -0.054349
     3  C   -0.088030   0.455933   5.267586   0.405768  -0.057947  -0.034433
     4  C   -0.031971  -0.056907   0.405768   4.944830   0.405741  -0.057736
     5  C   -0.086515  -0.034920  -0.057947   0.405741   5.214532   0.450741
     6  C    0.449544  -0.054349  -0.034433  -0.057736   0.450741   5.119946
     7  H   -0.043360   0.397356  -0.035164   0.004132  -0.000161   0.003798
     8  H    0.004484  -0.035443   0.378504  -0.057106   0.004519  -0.000167
     9  H    0.004583  -0.000213   0.004363  -0.050383   0.390236  -0.039033
    10  H   -0.042658   0.003804  -0.000164   0.004068  -0.035288   0.397063
    11  C    0.068360  -0.076238   0.004705  -0.000092   0.004541  -0.077160
    12  N   -0.118985  -0.000683  -0.000006   0.000000  -0.000005  -0.000712
    13  N   -0.000369   0.004461  -0.055625   0.288713  -0.055304   0.004195
    14  C    0.000014   0.000105  -0.001851  -0.062303   0.001638  -0.000110
    15  H   -0.000006  -0.000141   0.003904  -0.000793   0.000454  -0.000008
    16  C    0.000007  -0.000110   0.001987  -0.064288  -0.006154   0.000221
    17  H   -0.000010  -0.000018   0.000513  -0.002277   0.004318  -0.000155
    18  C   -0.000002   0.000003  -0.000105  -0.000082  -0.003271   0.000060
    19  H    0.000000   0.000000   0.000002   0.000157   0.000012  -0.000001
    20  H    0.000001  -0.000001  -0.000009   0.000718   0.001111   0.000020
    21  H    0.000000   0.000000   0.000001  -0.000019  -0.000011  -0.000001
    22  C   -0.000025   0.000580  -0.036580   0.000006  -0.000189   0.000005
    23  H   -0.000029   0.001098  -0.015292  -0.000113  -0.000083  -0.000001
    24  H    0.000001  -0.000032   0.000763   0.000493   0.000004   0.000000
    25  H    0.000000  -0.000009   0.000590   0.000011   0.000002   0.000000
    26  C    0.000000  -0.000001  -0.000005   0.004805  -0.000107   0.000001
    27  H    0.000000   0.000000   0.000008  -0.000079   0.000001   0.000000
    28  H    0.000000   0.000000  -0.000009  -0.000099   0.000002   0.000000
    29  C    0.000000   0.000001  -0.000118   0.004611   0.000143  -0.000003
    30  H    0.000000   0.000000   0.000001  -0.000062  -0.000001   0.000000
    31  H    0.000000   0.000000   0.000000  -0.000157   0.000011   0.000000
              7          8          9         10         11         12
     1  C   -0.043360   0.004484   0.004583  -0.042658   0.068360  -0.118985
     2  C    0.397356  -0.035443  -0.000213   0.003804  -0.076238  -0.000683
     3  C   -0.035164   0.378504   0.004363  -0.000164   0.004705  -0.000006
     4  C    0.004132  -0.057106  -0.050383   0.004068  -0.000092   0.000000
     5  C   -0.000161   0.004519   0.390236  -0.035288   0.004541  -0.000005
     6  C    0.003798  -0.000167  -0.039033   0.397063  -0.077160  -0.000712
     7  H    0.483435  -0.003963   0.000002  -0.000053  -0.006136  -0.000088
     8  H   -0.003963   0.509597  -0.000046   0.000002  -0.000094   0.000000
     9  H    0.000002  -0.000046   0.496428  -0.004166  -0.000081   0.000000
    10  H   -0.000053   0.000002  -0.004166   0.481303  -0.006255  -0.000093
    11  C   -0.006136  -0.000094  -0.000081  -0.006255   4.958418   0.850489
    12  N   -0.000088   0.000000   0.000000  -0.000093   0.850489   6.754277
    13  N   -0.000016  -0.008555  -0.007255  -0.000014   0.000000   0.000000
    14  C   -0.000006   0.001802  -0.000002   0.000000   0.000000   0.000000
    15  H   -0.000001   0.001828   0.000006   0.000000   0.000000   0.000000
    16  C    0.000001  -0.000022   0.001020  -0.000002   0.000000   0.000000
    17  H    0.000000   0.000016   0.002986   0.000000   0.000000   0.000000
    18  C    0.000000  -0.000007  -0.000590   0.000001   0.000000   0.000000
    19  H    0.000000   0.000000  -0.000022   0.000000   0.000000   0.000000
    20  H    0.000000   0.000000   0.004532  -0.000004   0.000000   0.000000
    21  H    0.000000   0.000000   0.000217   0.000000   0.000000   0.000000
    22  C    0.000038  -0.011704  -0.000002   0.000000   0.000000   0.000000
    23  H    0.000045   0.017341   0.000000   0.000000   0.000000   0.000000
    24  H   -0.000001  -0.000188   0.000000   0.000000   0.000000   0.000000
    25  H   -0.000001   0.000998   0.000000   0.000000   0.000000   0.000000
    26  C    0.000000   0.000071  -0.000004   0.000000   0.000000   0.000000
    27  H    0.000000   0.000004   0.000000   0.000000   0.000000   0.000000
    28  H    0.000000  -0.000001   0.000000   0.000000   0.000000   0.000000
    29  C    0.000000  -0.000016   0.000099   0.000000   0.000000   0.000000
    30  H    0.000000   0.000000   0.000001   0.000000   0.000000   0.000000
    31  H    0.000000  -0.000001  -0.000006   0.000000   0.000000   0.000000
             13         14         15         16         17         18
     1  C   -0.000369   0.000014  -0.000006   0.000007  -0.000010  -0.000002
     2  C    0.004461   0.000105  -0.000141  -0.000110  -0.000018   0.000003
     3  C   -0.055625  -0.001851   0.003904   0.001987   0.000513  -0.000105
     4  C    0.288713  -0.062303  -0.000793  -0.064288  -0.002277  -0.000082
     5  C   -0.055304   0.001638   0.000454  -0.006154   0.004318  -0.003271
     6  C    0.004195  -0.000110  -0.000008   0.000221  -0.000155   0.000060
     7  H   -0.000016  -0.000006  -0.000001   0.000001   0.000000   0.000000
     8  H   -0.008555   0.001802   0.001828  -0.000022   0.000016  -0.000007
     9  H   -0.007255  -0.000002   0.000006   0.001020   0.002986  -0.000590
    10  H   -0.000014   0.000000   0.000000  -0.000002   0.000000   0.000001
    11  C    0.000000   0.000000   0.000000   0.000000   0.000000   0.000000
    12  N    0.000000   0.000000   0.000000   0.000000   0.000000   0.000000
    13  N    7.271188   0.258218  -0.046938   0.258029  -0.040536  -0.062919
    14  C    0.258218   5.318518   0.353606  -0.078166   0.001094   0.004662
    15  H   -0.046938   0.353606   0.589099   0.000675   0.000942  -0.000223
    16  C    0.258029  -0.078166   0.000675   5.313535   0.368052   0.267992
    17  H   -0.040536   0.001094   0.000942   0.368052   0.554995  -0.061946
    18  C   -0.062919   0.004662  -0.000223   0.267992  -0.061946   5.388532
    19  H    0.001781   0.000184   0.000022  -0.042230   0.004008   0.364726
    20  H   -0.001656  -0.000035  -0.000002  -0.039610  -0.002963   0.366331
    21  H    0.003009  -0.000121   0.000008  -0.038172   0.001827   0.342086
    22  C   -0.057022   0.278922  -0.060258   0.004438  -0.000138  -0.000089
    23  H   -0.001574  -0.048805  -0.003932  -0.000055  -0.000005   0.000007
    24  H    0.003313  -0.041516   0.004581   0.000027   0.000008  -0.000042
    25  H    0.002678  -0.038254   0.001626  -0.000087   0.000003   0.000000
    26  C   -0.069480   0.271932  -0.045161  -0.091707   0.004651   0.000982
    27  H    0.002612  -0.036990  -0.001180   0.004029  -0.000039  -0.000100
    28  H    0.001278  -0.046959   0.004182   0.000499   0.000018   0.000900
    29  C   -0.051897  -0.091192  -0.001826   0.273549  -0.035826  -0.072753
    30  H    0.002295   0.004316  -0.000113  -0.039003   0.001320  -0.002390
    31  H    0.001272   0.000746   0.001996  -0.039599  -0.004237   0.003501
             19         20         21         22         23         24
     1  C    0.000000   0.000001   0.000000  -0.000025  -0.000029   0.000001
     2  C    0.000000  -0.000001   0.000000   0.000580   0.001098  -0.000032
     3  C    0.000002  -0.000009   0.000001  -0.036580  -0.015292   0.000763
     4  C    0.000157   0.000718  -0.000019   0.000006  -0.000113   0.000493
     5  C    0.000012   0.001111  -0.000011  -0.000189  -0.000083   0.000004
     6  C   -0.000001   0.000020  -0.000001   0.000005  -0.000001   0.000000
     7  H    0.000000   0.000000   0.000000   0.000038   0.000045  -0.000001
     8  H    0.000000   0.000000   0.000000  -0.011704   0.017341  -0.000188
     9  H   -0.000022   0.004532   0.000217  -0.000002   0.000000   0.000000
    10  H    0.000000  -0.000004   0.000000   0.000000   0.000000   0.000000
    11  C    0.000000   0.000000   0.000000   0.000000   0.000000   0.000000
    12  N    0.000000   0.000000   0.000000   0.000000   0.000000   0.000000
    13  N    0.001781  -0.001656   0.003009  -0.057022  -0.001574   0.003313
    14  C    0.000184  -0.000035  -0.000121   0.278922  -0.048805  -0.041516
    15  H    0.000022  -0.000002   0.000008  -0.060258  -0.003932   0.004581
    16  C   -0.042230  -0.039610  -0.038172   0.004438  -0.000055   0.000027
    17  H    0.004008  -0.002963   0.001827  -0.000138  -0.000005   0.000008
    18  C    0.364726   0.366331   0.342086  -0.000089   0.000007  -0.000042
    19  H    0.519627  -0.025720  -0.024124  -0.000090  -0.000001   0.000090
    20  H   -0.025720   0.515529  -0.027024   0.000002   0.000000   0.000001
    21  H   -0.024124  -0.027024   0.557703  -0.000001   0.000000   0.000002
    22  C   -0.000090   0.000002  -0.000001   5.428642   0.360258   0.354114
    23  H   -0.000001   0.000000   0.000000   0.360258   0.524812  -0.024588
    24  H    0.000090   0.000001   0.000002   0.354114  -0.024588   0.514515
    25  H    0.000002   0.000000   0.000000   0.348851  -0.027349  -0.021160
    26  C    0.001615  -0.000182   0.000196  -0.054853   0.003864  -0.003966
    27  H   -0.000014   0.000001   0.000002   0.000279  -0.000077   0.000028
    28  H    0.001757  -0.000043   0.000054  -0.004429   0.000037   0.005214
    29  C   -0.003261   0.003740  -0.000933   0.004892  -0.000148  -0.000063
    30  H    0.000613   0.000102   0.001605  -0.000067   0.000001  -0.000003
    31  H    0.000030  -0.000084   0.000006  -0.000054   0.000003   0.000003
             25         26         27         28         29         30
     1  C    0.000000   0.000000   0.000000   0.000000   0.000000   0.000000
     2  C   -0.000009  -0.000001   0.000000   0.000000   0.000001   0.000000
     3  C    0.000590  -0.000005   0.000008  -0.000009  -0.000118   0.000001
     4  C    0.000011   0.004805  -0.000079  -0.000099   0.004611  -0.000062
     5  C    0.000002  -0.000107   0.000001   0.000002   0.000143  -0.000001
     6  C    0.000000   0.000001   0.000000   0.000000  -0.000003   0.000000
     7  H   -0.000001   0.000000   0.000000   0.000000   0.000000   0.000000
     8  H    0.000998   0.000071   0.000004  -0.000001  -0.000016   0.000000
     9  H    0.000000  -0.000004   0.000000   0.000000   0.000099   0.000001
    10  H    0.000000   0.000000   0.000000   0.000000   0.000000   0.000000
    11  C    0.000000   0.000000   0.000000   0.000000   0.000000   0.000000
    12  N    0.000000   0.000000   0.000000   0.000000   0.000000   0.000000
    13  N    0.002678  -0.069480   0.002612   0.001278  -0.051897   0.002295
    14  C   -0.038254   0.271932  -0.036990  -0.046959  -0.091192   0.004316
    15  H    0.001626  -0.045161  -0.001180   0.004182  -0.001826  -0.000113
    16  C   -0.000087  -0.091707   0.004029   0.000499   0.273549  -0.039003
    17  H    0.000003   0.004651  -0.000039   0.000018  -0.035826   0.001320
    18  C    0.000000   0.000982  -0.000100   0.000900  -0.072753  -0.002390
    19  H    0.000002   0.001615  -0.000014   0.001757  -0.003261   0.000613
    20  H    0.000000  -0.000182   0.000001  -0.000043   0.003740   0.000102
    21  H    0.000000   0.000196   0.000002   0.000054  -0.000933   0.001605
    22  C    0.348851  -0.054853   0.000279  -0.004429   0.004892  -0.000067
    23  H   -0.027349   0.003864  -0.000077   0.000037  -0.000148   0.000001
    24  H   -0.021160  -0.003966   0.000028   0.005214  -0.000063  -0.000003
    25  H    0.540848  -0.002683   0.001532   0.000101  -0.000019   0.000000
    26  C   -0.002683   5.415192   0.375184   0.370654   0.266388  -0.031884
    27  H    0.001532   0.375184   0.517868  -0.025803  -0.032672   0.000307
    28  H    0.000101   0.370654  -0.025803   0.527275  -0.043492  -0.003923
    29  C   -0.000019   0.266388  -0.032672  -0.043492   5.423405   0.380430
    30  H    0.000000  -0.031884   0.000307  -0.003923   0.380430   0.510468
    31  H   -0.000002  -0.043084  -0.004033   0.003663   0.370533  -0.027417
             31
     1  C    0.000000
     2  C    0.000000
     3  C    0.000000
     4  C   -0.000157
     5  C    0.000011
     6  C    0.000000
     7  H    0.000000
     8  H   -0.000001
     9  H   -0.000006
    10  H    0.000000
    11  C    0.000000
    12  N    0.000000
    13  N    0.001272
    14  C    0.000746
    15  H    0.001996
    16  C   -0.039599
    17  H   -0.004237
    18  C    0.003501
    19  H    0.000030
    20  H   -0.000084
    21  H    0.000006
    22  C   -0.000054
    23  H    0.000003
    24  H    0.000003
    25  H   -0.000002
    26  C   -0.043084
    27  H   -0.004033
    28  H    0.003663
    29  C    0.370533
    30  H   -0.027417
    31  H    0.531312
 Mulliken atomic charges:
              1
     1  C   -0.008443
     2  C   -0.164758
     3  C   -0.199290
     4  C    0.320415
     5  C   -0.198049
     6  C   -0.161726
     7  H    0.200141
     8  H    0.198147
     9  H    0.197330
    10  H    0.202456
    11  C    0.279542
    12  N   -0.484192
    13  N   -0.643881
    14  C   -0.049446
    15  H    0.197652
    16  C   -0.054857
    17  H    0.203398
    18  C   -0.535263
    19  H    0.200837
    20  H    0.205245
    21  H    0.183691
    22  C   -0.555529
    23  H    0.214583
    24  H    0.208403
    25  H    0.192322
    26  C   -0.372417
    27  H    0.199131
    28  H    0.209123
    29  C   -0.393571
    30  H    0.203405
    31  H    0.205600
 Sum of Mulliken atomic charges =   0.00000
 Mulliken charges with hydrogens summed into heavy atoms:
              1
     1  C   -0.008443
     2  C    0.035384
     3  C   -0.001143
     4  C    0.320415
     5  C   -0.000719
     6  C    0.040730
    11  C    0.279542
    12  N   -0.484192
    13  N   -0.643881
    14  C    0.148206
    16  C    0.148541
    18  C    0.054510
    22  C    0.059779
    26  C    0.035837
    29  C    0.015434
 Sum of Mulliken charges with hydrogens summed into heavy atoms =   0.00000
 Electronic spatial extent (au):  <R**2>=           3847.5977
 Charge=              0.0000 electrons
 Dipole moment (field-independent basis, Debye):
    X=              6.8231    Y=              0.1197    Z=             -0.4919  Tot=              6.8419
 Quadrupole moment (field-independent basis, Debye-Ang):
   XX=           -117.5121   YY=            -81.2529   ZZ=            -92.6035
   XY=             -0.0291   XZ=             -2.4005   YZ=              0.0795
 Traceless Quadrupole moment (field-independent basis, Debye-Ang):
   XX=            -20.3892   YY=             15.8699   ZZ=              4.5193
   XY=             -0.0291   XZ=             -2.4005   YZ=              0.0795
 Octapole moment (field-independent basis, Debye-Ang**2):
  XXX=            248.1491  YYY=              0.1775  ZZZ=             -0.8905  XYY=             -2.8874
  XXY=              1.4083  XXZ=              4.1640  XZZ=             10.1273  YZZ=              0.5049
  YYZ=             -0.7179  XYZ=             -0.3845
 Hexadecapole moment (field-independent basis, Debye-Ang**3):
 XXXX=          -5373.0307 YYYY=           -946.9382 ZZZZ=           -241.2652 XXXY=            -11.3889
 XXXZ=            -50.9962 YYYX=              2.6606 YYYZ=             -0.5321 ZZZX=             -0.8082
 ZZZY=              1.1053 XXYY=           -783.4122 XXZZ=           -714.7103 YYZZ=           -212.3184
 XXYZ=             -2.5461 YYXZ=             -3.8524 ZZXY=              2.4445
 N-N= 9.539634523568D+02 E-N=-3.323653476524D+03  KE= 6.067269509425D+02
 1|1|UNPC-DESKTOP-K2VF0AK|SP|RTD-B3LYP-FC|3-21G|C13H16N2|MELIH|25-Dec-2
 024|0||# td b3lyp/3-21g geom=connectivity||Title Card Required||0,1|C,
 0,-2.94408,-0.032181,-0.05736|C,0,-2.225752,1.13093,-0.297756|C,0,-0.8
 4638,1.114368,-0.231269|C,0,-0.162757,-0.052542,0.075098|C,0,-0.891471
 ,-1.212671,0.314519|C,0,-2.268904,-1.20781,0.249401|H,0,-2.746625,2.03
 6295,-0.534924|H,0,-0.279173,2.001859,-0.417391|H,0,-0.375651,-2.12094
 7,0.553053|H,0,-2.824777,-2.104539,0.434672|C,0,-4.370817,-0.022495,-0
 .125039|N,0,-5.510108,-0.015079,-0.179035|N,0,1.259289,-0.032149,0.141
 505|C,0,1.98359664,1.0569366,-0.5551883|H,0,1.67936259,1.12731525,-1.5
 9853567|C,0,1.97890984,-1.33374501,0.02235154|H,0,1.39652633,-2.033999
 6,-0.56594781|C,0,2.2264178,-1.91575953,1.41588623|H,0,2.82998276,-1.2
 287866,1.99629364|H,0,1.28670304,-2.06651522,1.9345299|H,0,2.73836184,
 -2.87002987,1.34902472|C,0,1.76081308,2.39988014,0.1391757|H,0,0.71843
 375,2.69244742,0.09474245|H,0,2.05198454,2.31650594,1.17884117|H,0,2.3
 5203318,3.17518619,-0.33626482|C,0,3.43335978,0.5549675,-0.47912366|H,
 0,4.07294251,1.0367873,-1.20680133|H,0,3.82115002,0.74430397,0.5143943
 |C,0,3.29052049,-0.96148463,-0.7165714|H,0,4.13583531,-1.52641009,-0.3
 4751324|H,0,3.18557159,-1.1523385,-1.77853688||Version=IA32W-G09RevA.0
 2|State=1-A|HF=-611.1380103|RMSD=4.539e-009|PG=C01 [X(C13H16N2)]||@


 ... A MOLECULAR SYSTEM ... (PASSES) ... FROM ONE STATE OF EQUILIBRIUM 
 TO ANOTHER ... BY MEANS OF ALL POSSIBLE INTERMEDIATE PATHS, 
 BUT THE PATH MOST ECONOMICAL OF ENERGY WILL BE THE MORE OFTEN TRAVELED.

                      -- HENRY EYRING, 1945
 Job cpu time:  0 days  0 hours  6 minutes  5.0 seconds.
 File lengths (MBytes):  RWF=     64 Int=      0 D2E=      0 Chk=      5 Scr=      1
 Normal termination of Gaussian 09 at Wed Dec 25 20:56:29 2024.
