 Entering Link 1 = C:\G09W\l1.exe PID=     17412.
  
 Copyright (c) 1988,1990,1992,1993,1995,1998,2003,2009, Gaussian, Inc.
                  All Rights Reserved.
  
 This is part of the Gaussian(R) 09 program.  It is based on
 the Gaussian(R) 03 system (copyright 2003, Gaussian, Inc.),
 the Gaussian(R) 98 system (copyright 1998, Gaussian, Inc.),
 the Gaussian(R) 94 system (copyright 1995, Gaussian, Inc.),
 the Gaussian 92(TM) system (copyright 1992, Gaussian, Inc.),
 the Gaussian 90(TM) system (copyright 1990, Gaussian, Inc.),
 the Gaussian 88(TM) system (copyright 1988, Gaussian, Inc.),
 the Gaussian 86(TM) system (copyright 1986, Carnegie Mellon
 University), and the Gaussian 82(TM) system (copyright 1983,
 Carnegie Mellon University). Gaussian is a federally registered
 trademark of Gaussian, Inc.
  
 This software contains proprietary and confidential information,
 including trade secrets, belonging to Gaussian, Inc.
  
 This software is provided under written license and may be
 used, copied, transmitted, or stored only in accord with that
 written license.
  
 The following legend is applicable only to US Government
 contracts under FAR:
  
                    RESTRICTED RIGHTS LEGEND
  
 Use, reproduction and disclosure by the US Government is
 subject to restrictions as set forth in subparagraphs (a)
 and (c) of the Commercial Computer Software - Restricted
 Rights clause in FAR 52.227-19.
  
 Gaussian, Inc.
 340 Quinnipiac St., Bldg. 40, Wallingford CT 06492
  
  
 ---------------------------------------------------------------
 Warning -- This program may not be used in any manner that
 competes with the business of Gaussian, Inc. or will provide
 assistance to any competitor of Gaussian, Inc.  The licensee
 of this program is prohibited from giving any competitor of
 Gaussian, Inc. access to this program.  By using this program,
 the user acknowledges that Gaussian, Inc. is engaged in the
 business of creating and licensing software in the field of
 computational chemistry and represents and warrants to the
 licensee that it is not a competitor of Gaussian, Inc. and that
 it will not use this program in any manner prohibited above.
 ---------------------------------------------------------------
  

 Cite this work as:
 Gaussian 09, Revision A.02,
 M. J. Frisch, G. W. Trucks, H. B. Schlegel, G. E. Scuseria, 
 M. A. Robb, J. R. Cheeseman, G. Scalmani, V. Barone, B. Mennucci, 
 G. A. Petersson, H. Nakatsuji, M. Caricato, X. Li, H. P. Hratchian, 
 A. F. Izmaylov, J. Bloino, G. Zheng, J. L. Sonnenberg, M. Hada, 
 M. Ehara, K. Toyota, R. Fukuda, J. Hasegawa, M. Ishida, T. Nakajima, 
 Y. Honda, O. Kitao, H. Nakai, T. Vreven, J. A. Montgomery, Jr., 
 J. E. Peralta, F. Ogliaro, M. Bearpark, J. J. Heyd, E. Brothers, 
 K. N. Kudin, V. N. Staroverov, R. Kobayashi, J. Normand, 
 K. Raghavachari, A. Rendell, J. C. Burant, S. S. Iyengar, J. Tomasi, 
 M. Cossi, N. Rega, J. M. Millam, M. Klene, J. E. Knox, J. B. Cross, 
 V. Bakken, C. Adamo, J. Jaramillo, R. Gomperts, R. E. Stratmann, 
 O. Yazyev, A. J. Austin, R. Cammi, C. Pomelli, J. W. Ochterski, 
 R. L. Martin, K. Morokuma, V. G. Zakrzewski, G. A. Voth, 
 P. Salvador, J. J. Dannenberg, S. Dapprich, A. D. Daniels, 
 O. Farkas, J. B. Foresman, J. V. Ortiz, J. Cioslowski, 
 and D. J. Fox, Gaussian, Inc., Wallingford CT, 2009.
 
 ******************************************
 Gaussian 09:  IA32W-G09RevA.02 11-Jun-2009
                17-Dec-2024 
 ******************************************
 %chk=C:\G09W\Hw5\energy0.chk
 ----------------------------------
 # td b3lyp/3-21g geom=connectivity
 ----------------------------------
 1/38=1,57=2/1;
 2/12=2,17=6,18=5,40=1/2;
 3/5=5,11=2,16=1,25=1,30=1,74=-5/1,2,8,3;
 4//1;
 5/5=2,38=5/2;
 8/6=1,10=1/1;
 9/42=1/14;
 6/7=2,8=2,9=2,10=2/1;
 99/5=1,9=1/99;
 -------------------
 Title Card Required
 -------------------
 Symbolic Z-matrix:
 Charge =  0 Multiplicity = 1
 C                    -2.94502  -0.05663  -0.04359 
 C                    -2.28273   1.0152    0.53879 
 C                    -0.90259   1.02713   0.58818 
 C                    -0.16274  -0.02168   0.0633 
 C                    -0.83556  -1.09113  -0.51795 
 C                    -2.21323  -1.1127   -0.57393 
 H                    -2.84723   1.82906   0.9465 
 H                    -0.37824   1.84767   1.03065 
 H                    -0.27594  -1.90832  -0.92656 
 H                    -2.7259   -1.93911  -1.02299 
 C                    -4.37221  -0.0753   -0.09871 
 N                    -5.51185  -0.09049  -0.1429 
 N                     1.25847   0.02035   0.13706 
 C                     1.9418    1.30884  -0.12552 
 H                     1.62643   1.73482  -1.07692 
 C                     2.01792  -1.13     -0.434 
 H                     1.45294  -1.59463  -1.23434 
 C                     2.29586  -2.16014   0.66304 
 H                     2.88237  -1.70443   1.45135 
 H                     1.36594  -2.51576   1.09149 
 H                     2.8372   -3.01131   0.26348 
 C                     1.68261   2.31001   0.99954 
 H                     0.63113   2.56503   1.05857 
 H                     1.9853    1.87277   1.94285 
 H                     2.2448    3.22246   0.83204 
 C                     3.40736   0.86027  -0.22802 
 H                     4.02499   1.58957  -0.73534 
 H                     3.79757   0.69737   0.76923 
 C                     3.3106   -0.47709  -0.98862 
 H                     4.17657  -1.10822  -0.84143 
 H                     3.20252  -0.28208  -2.04951 
 
                          Input orientation:                          
 ---------------------------------------------------------------------
 Center     Atomic      Atomic             Coordinates (Angstroms)
 Number     Number       Type             X           Y           Z
 ---------------------------------------------------------------------
      1          6           0       -2.945020   -0.056626   -0.043590
      2          6           0       -2.282732    1.015204    0.538791
      3          6           0       -0.902594    1.027133    0.588178
      4          6           0       -0.162743   -0.021677    0.063298
      5          6           0       -0.835555   -1.091127   -0.517947
      6          6           0       -2.213228   -1.112699   -0.573925
      7          1           0       -2.847229    1.829060    0.946497
      8          1           0       -0.378243    1.847670    1.030650
      9          1           0       -0.275943   -1.908324   -0.926556
     10          1           0       -2.725895   -1.939112   -1.022990
     11          6           0       -4.372210   -0.075303   -0.098710
     12          7           0       -5.511845   -0.090490   -0.142902
     13          7           0        1.258466    0.020349    0.137061
     14          6           0        1.941802    1.308840   -0.125519
     15          1           0        1.626431    1.734818   -1.076923
     16          6           0        2.017922   -1.130003   -0.434005
     17          1           0        1.452937   -1.594634   -1.234339
     18          6           0        2.295861   -2.160139    0.663042
     19          1           0        2.882368   -1.704426    1.451351
     20          1           0        1.365940   -2.515762    1.091487
     21          1           0        2.837195   -3.011310    0.263475
     22          6           0        1.682606    2.310007    0.999540
     23          1           0        0.631130    2.565031    1.058569
     24          1           0        1.985303    1.872768    1.942850
     25          1           0        2.244795    3.222459    0.832041
     26          6           0        3.407356    0.860267   -0.228015
     27          1           0        4.024993    1.589567   -0.735340
     28          1           0        3.797571    0.697375    0.769232
     29          6           0        3.310600   -0.477093   -0.988620
     30          1           0        4.176574   -1.108224   -0.841426
     31          1           0        3.202525   -0.282080   -2.049515
 ---------------------------------------------------------------------
                    Distance matrix (angstroms):
                    1          2          3          4          5
     1  C    0.000000
     2  C    1.388025   0.000000
     3  C    2.396908   1.381073   0.000000
     4  C    2.784549   2.407399   1.386680   0.000000
     5  C    2.396883   2.765438   2.390613   1.390771   0.000000
     6  C    1.389987   2.402278   2.765344   2.408500   1.378979
     7  H    2.132052   1.071094   2.133796   3.378126   3.836525
     8  H    3.371747   2.135885   1.069582   2.115814   3.353180
     9  H    3.366361   3.836855   3.362145   2.133556   1.071419
    10  H    2.133306   3.370984   3.836522   3.380285   2.132494
    11  C    1.428376   2.441625   3.704783   4.212925   3.703456
    12  N    2.568969   3.480580   4.798828   5.353517   4.796835
    13  N    4.208070   3.700163   2.426376   1.423742   2.459540
    14  C    5.074666   4.286516   2.946067   2.497006   3.691552
    15  H    5.017491   4.290680   3.109558   2.754365   3.789432
    16  C    5.092676   4.903455   3.771937   2.496196   2.854976
    17  H    4.808885   4.889833   3.967840   2.601629   2.450292
    18  C    5.691303   5.573307   4.516018   3.313223   3.513301
    19  H    6.237672   5.908250   4.746833   3.745803   4.251732
    20  H    5.091181   5.107446   4.236941   3.100726   3.076758
    21  H    6.500651   6.519377   5.513663   4.240001   4.217442
    22  C    5.301320   4.196750   2.915175   3.117469   4.495733
    23  H    4.569102   3.341067   2.222321   2.883030   4.243120
    24  H    5.654785   4.574158   3.300028   3.425747   4.774666
    25  H    6.201073   5.045441   3.845125   4.112374   5.469739
    26  C    6.420856   5.743614   4.389725   3.688942   4.679134
    27  H    7.195106   6.460704   5.133142   4.557528   5.555025
    28  H    6.833135   6.092964   4.715196   4.086498   5.130441
    29  C    6.340556   5.987094   4.743415   3.657601   4.217721
    30  H    7.242893   6.938053   5.692228   4.563856   5.022585
    31  H    6.470461   6.202444   5.052075   3.982062   4.393899
                    6          7          8          9         10
     6  C    0.000000
     7  H    3.371585   0.000000
     8  H    3.834790   2.470490   0.000000
     9  H    2.123780   4.907940   4.236580   0.000000
    10  H    1.071189   4.253554   4.905979   2.452042   0.000000
    11  C    2.441971   2.654171   4.574391   4.563409   2.653004
    12  N    3.480168   3.460006   5.611378   5.597616   3.457380
    13  N    3.720478   4.558876   2.610827   2.684301   4.589154
    14  C    4.830030   4.935045   2.647579   3.988759   5.756913
    15  H    4.806698   4.910881   2.910897   4.112678   5.695912
    16  C    4.233498   5.859312   4.093086   2.471883   4.848233
    17  H    3.756218   5.913472   4.509196   1.783860   4.198329
    18  C    4.791565   6.515015   4.832028   3.033876   5.301847
    19  H    5.515160   6.750458   4.840037   3.958655   6.134334
    20  H    4.189585   6.053866   4.699512   2.671565   4.641837
    21  H    5.460104   7.497225   5.876843   3.510610   5.809697
    22  C    5.419247   4.555604   2.112303   5.033893   6.448296
    23  H    4.927587   3.557133   1.238637   4.977390   5.990811
    24  H    5.733658   4.934369   2.533592   5.257697   6.747001
    25  H    6.375289   5.280471   2.968134   5.980946   7.402075
    26  C    5.966843   6.437225   4.109740   4.660445   6.788614
    27  H    6.800272   7.079079   4.751192   5.547058   7.622913
    28  H    6.419513   6.742811   4.339233   5.124342   7.260766
    29  C    5.575719   6.854333   4.805157   3.862067   6.211115
    30  H    6.395400   7.820365   5.743547   4.524634   6.954668
    31  H    5.674299   7.073367   5.181230   4.000681   6.240647
                   11         12         13         14         15
    11  C    0.000000
    12  N    1.140593   0.000000
    13  N    5.636422   6.777003   0.000000
    14  C    6.464002   7.583883   1.481926   0.000000
    15  H    6.341698   7.426920   2.132735   1.089076   0.000000
    16  C    6.485260   7.606755   1.492045   2.459454   2.962061
    17  H    6.126202   7.208458   2.127610   3.146209   3.337683
    18  C    7.027800   8.117466   2.471309   3.575052   4.318136
    19  H    7.595106   8.695358   2.709108   3.528591   4.449488
    20  H    6.348132   7.396593   2.711888   4.054664   4.778837
    21  H    7.792743   8.854536   3.420427   4.429079   5.078223
    22  C    6.599747   7.669921   2.483203   1.528161   2.155388
    23  H    5.774433   6.799373   2.778153   2.167473   2.498041
    24  H    6.955640   8.025707   2.687122   2.144308   3.044151
    25  H    7.451596   8.490678   3.421893   2.161172   2.497918
    26  C    7.836687   8.970135   2.335909   1.536090   2.158049
    27  H    8.584294   9.701796   3.298060   2.188692   2.427112
    28  H    8.252010   9.387116   2.702787   2.149034   3.032891
    29  C    7.744607   8.871315   2.392877   2.410002   2.781505
    30  H    8.642931   9.766738   3.278180   3.368817   3.826431
    31  H    7.824641   8.922563   2.941418   2.796821   2.738226
                   16         17         18         19         20
    16  C    0.000000
    17  H    1.084262   0.000000
    18  C    1.530340   2.151829   0.000000
    19  H    2.152161   3.044381   1.083096   0.000000
    20  H    2.161604   2.503100   1.083875   1.757078   0.000000
    21  H    2.167257   2.483262   1.084983   1.766645   1.759478
    22  C    3.741812   4.504352   4.524546   4.214170   4.837021
    23  H    4.219508   4.820333   5.025435   4.842583   5.133760
    24  H    3.829770   4.732950   4.242487   3.720566   4.513050
    25  H    4.538531   5.301070   5.385492   5.006419   5.810927
    26  C    2.436008   3.295297   3.339500   3.110230   4.160053
    27  H    3.393405   4.123543   4.359548   4.115531   5.221263
    28  H    2.820326   3.842513   3.229829   2.659234   4.042391
    29  C    1.550776   2.181785   2.567162   2.764631   3.502102
    30  H    2.196871   2.794490   2.628122   2.699491   3.690119
    31  H    2.175346   2.334174   3.421565   3.792312   4.269458
                   21         22         23         24         25
    21  H    0.000000
    22  C    5.494660   0.000000
    23  H    6.049337   1.083570   0.000000
    24  H    5.234524   1.082884   1.759252   0.000000
    25  H    6.287613   1.084749   1.757111   1.767173   0.000000
    26  C    3.944079   2.565814   3.502706   2.785687   2.838171
    27  H    4.855571   3.002602   3.960801   3.378349   2.879604
    28  H    3.864253   2.669588   3.687574   2.458301   2.964980
    29  C    2.866027   3.790919   4.541482   3.983940   4.258806
    30  H    2.576136   4.614470   5.447289   4.630354   5.028626
    31  H    3.596121   4.280865   4.937438   4.697231   4.637068
                   26         27         28         29         30
    26  C    0.000000
    27  H    1.082004   0.000000
    28  H    1.083191   1.763934   0.000000
    29  C    1.541562   2.201271   2.169460   0.000000
    30  H    2.200665   2.704128   2.449091   1.081621   0.000000
    31  H    2.159808   2.430344   3.042818   1.084071   1.758057
                   31
    31  H    0.000000
 Stoichiometry    C13H16N2
 Framework group  C1[X(C13H16N2)]
 Deg. of freedom    87
 Full point group                 C1      NOp   1
 Largest Abelian subgroup         C1      NOp   1
 Largest concise Abelian subgroup C1      NOp   1
                         Standard orientation:                         
 ---------------------------------------------------------------------
 Center     Atomic      Atomic             Coordinates (Angstroms)
 Number     Number       Type             X           Y           Z
 ---------------------------------------------------------------------
      1          6           0       -2.944742   -0.051113   -0.046807
      2          6           0       -2.266957    1.120627    0.260187
      3          6           0       -0.886975    1.123561    0.315003
      4          6           0       -0.162626   -0.032837    0.068133
      5          6           0       -0.850899   -1.201833   -0.238417
      6          6           0       -2.228552   -1.215766   -0.297245
      7          1           0       -2.819427    2.017925    0.452218
      8          1           0       -0.350752    2.019498    0.546880
      9          1           0       -0.303365   -2.102517   -0.430541
     10          1           0       -2.753167   -2.119190   -0.533992
     11          6           0       -4.371860   -0.061285   -0.105866
     12          7           0       -5.511442   -0.069717   -0.153130
     13          7           0        1.258832    0.004626    0.139509
     14          6           0        1.963938    1.179176   -0.425615
     15          1           0        1.658644    1.363892   -1.454577
     16          6           0        2.001277   -1.261814   -0.127143
     17          1           0        1.431390   -1.899746   -0.793399
     18          6           0        2.258819   -1.995996    1.190654
     19          1           0        2.850119   -1.369977    1.847588
     20          1           0        1.321837   -2.221869    1.686469
     21          1           0        2.787495   -2.927128    1.015484
     22          6           0        1.717453    2.429141    0.418251
     23          1           0        0.670090    2.706615    0.405547
     24          1           0        2.009917    2.231716    1.442032
     25          1           0        2.294988    3.264246    0.036501
     26          6           0        3.422307    0.697207   -0.404718
     27          1           0        4.053397    1.270709   -1.070715
     28          1           0        3.806575    0.777638    0.604822
     29          6           0        3.306223   -0.784084   -0.815470
     30          1           0        4.161308   -1.372885   -0.512078
     31          1           0        3.204786   -0.853199   -1.892570
 ---------------------------------------------------------------------
 Rotational constants (GHZ):      1.4275702      0.3276279      0.2827950
 Standard basis: 3-21G (6D, 7F)
 There are   167 symmetry adapted basis functions of A   symmetry.
 Integral buffers will be    262144 words long.
 Raffenetti 2 integral format.
 Two-electron integral symmetry is turned on.
   167 basis functions,   273 primitive gaussians,   167 cartesian basis functions
    54 alpha electrons       54 beta electrons
       nuclear repulsion energy       953.5907896960 Hartrees.
 NAtoms=   31 NActive=   31 NUniq=   31 SFac= 7.50D-01 NAtFMM=   80 NAOKFM=F Big=F
 One-electron integrals computed using PRISM.
 NBasis=   167 RedAO= T  NBF=   167
 NBsUse=   167 1.00D-06 NBFU=   167
 Harris functional with IExCor=  402 diagonalized for initial guess.
 ExpMin= 1.83D-01 ExpMax= 2.43D+02 ExpMxC= 2.43D+02 IAcc=1 IRadAn=         1 AccDes= 0.00D+00
 HarFok:  IExCor=  402 AccDes= 0.00D+00 IRadAn=         1 IDoV= 1
 ScaDFX=  1.000000  1.000000  1.000000  1.000000
 FoFCou: FMM=F IPFlag=           0 FMFlag=      100000 FMFlg1=           0
         NFxFlg=           0 DoJE=T BraDBF=F KetDBF=T FulRan=T
         Omega=  0.000000  0.000000  1.000000  0.000000  0.000000 ICntrl=     500 IOpCl=  0
         NMat0=    1 NMatS0=    1 NMatT0=    0 NMatD0=    1 NMtDS0=    0 NMtDT0=    0
         I1Cent=           4 NGrid=           0.
 Petite list used in FoFCou.
 Initial guess orbital symmetries:
       Occupied  (A) (A) (A) (A) (A) (A) (A) (A) (A) (A) (A) (A)
                 (A) (A) (A) (A) (A) (A) (A) (A) (A) (A) (A) (A)
                 (A) (A) (A) (A) (A) (A) (A) (A) (A) (A) (A) (A)
                 (A) (A) (A) (A) (A) (A) (A) (A) (A) (A) (A) (A)
                 (A) (A) (A) (A) (A) (A)
       Virtual   (A) (A) (A) (A) (A) (A) (A) (A) (A) (A) (A) (A)
                 (A) (A) (A) (A) (A) (A) (A) (A) (A) (A) (A) (A)
                 (A) (A) (A) (A) (A) (A) (A) (A) (A) (A) (A) (A)
                 (A) (A) (A) (A) (A) (A) (A) (A) (A) (A) (A) (A)
                 (A) (A) (A) (A) (A) (A) (A) (A) (A) (A) (A) (A)
                 (A) (A) (A) (A) (A) (A) (A) (A) (A) (A) (A) (A)
                 (A) (A) (A) (A) (A) (A) (A) (A) (A) (A) (A) (A)
                 (A) (A) (A) (A) (A) (A) (A) (A) (A) (A) (A) (A)
                 (A) (A) (A) (A) (A) (A) (A) (A) (A) (A) (A) (A)
                 (A) (A) (A) (A) (A)
 The electronic state of the initial guess is 1-A.
 Requested convergence on RMS density matrix=1.00D-08 within 128 cycles.
 Requested convergence on MAX density matrix=1.00D-06.
 Requested convergence on             energy=1.00D-06.
 No special actions if energy rises.
 Integral accuracy reduced to 1.0D-05 until final iterations.
 Initial convergence to 1.0D-05 achieved.  Increase integral accuracy.
 SCF Done:  E(RB3LYP) =  -611.130694370     A.U. after   16 cycles
             Convg  =    0.4028D-08             -V/T =  2.0072
 ExpMin= 1.83D-01 ExpMax= 2.43D+02 ExpMxC= 2.43D+02 IAcc=1 IRadAn=         1 AccDes= 0.00D+00
 HarFok:  IExCor=  205 AccDes= 0.00D+00 IRadAn=         1 IDoV=-2
 ScaDFX=  1.000000  1.000000  1.000000  1.000000
 Range of M.O.s used for correlation:    16   167
 NBasis=   167 NAE=    54 NBE=    54 NFC=    15 NFV=     0
 NROrb=    152 NOA=    39 NOB=    39 NVA=   113 NVB=   113
 Would need an additional   268100000 words for in-memory AO integral storage.
 Orbital symmetries:
       Occupied  (A) (A) (A) (A) (A) (A) (A) (A) (A) (A) (A) (A)
                 (A) (A) (A) (A) (A) (A) (A) (A) (A) (A) (A) (A)
                 (A) (A) (A) (A) (A) (A) (A) (A) (A) (A) (A) (A)
                 (A) (A) (A) (A) (A) (A) (A) (A) (A) (A) (A) (A)
                 (A) (A) (A) (A) (A) (A)
       Virtual   (A) (A) (A) (A) (A) (A) (A) (A) (A) (A) (A) (A)
                 (A) (A) (A) (A) (A) (A) (A) (A) (A) (A) (A) (A)
                 (A) (A) (A) (A) (A) (A) (A) (A) (A) (A) (A) (A)
                 (A) (A) (A) (A) (A) (A) (A) (A) (A) (A) (A) (A)
                 (A) (A) (A) (A) (A) (A) (A) (A) (A) (A) (A) (A)
                 (A) (A) (A) (A) (A) (A) (A) (A) (A) (A) (A) (A)
                 (A) (A) (A) (A) (A) (A) (A) (A) (A) (A) (A) (A)
                 (A) (A) (A) (A) (A) (A) (A) (A) (A) (A) (A) (A)
                 (A) (A) (A) (A) (A) (A) (A) (A) (A) (A) (A) (A)
                 (A) (A) (A) (A) (A)
    12 initial guesses have been made.
 Convergence on wavefunction:    0.001000000000000
 Iteration     1 Dimension    12 NMult    12
 CISAX will form    12 AO SS matrices at one time.
 New state      1 was old state      2
 New state      2 was old state      1
 Iteration     2 Dimension    18 NMult    18
 Iteration     3 Dimension    24 NMult    24
 Iteration     4 Dimension    30 NMult    30
 Iteration     5 Dimension    36 NMult    36
 Iteration     6 Dimension    38 NMult    38
 ***********************************************************************
 Excited states from <AA,BB:AA,BB> singles matrix:
 ***********************************************************************
 
 Ground to excited state transition electric dipole moments (Au):
       state          X           Y           Z        Dip. S.      Osc.
         1         0.3329     -0.3519     -0.1063      0.2460      0.0277
         2         1.9383      0.0580      0.0323      3.7614      0.4399
         3         0.2161      0.4349      0.1190      0.2500      0.0370
 Ground to excited state transition velocity dipole moments (Au):
       state          X           Y           Z        Dip. S.      Osc.
         1        -0.0482      0.0514      0.0204      0.0054      0.0212
         2        -0.2776     -0.0107      0.0014      0.0772      0.2933
         3        -0.0379     -0.0796     -0.0226      0.0083      0.0249
 Ground to excited state transition magnetic dipole moments (Au):
       state          X           Y           Z
         1         0.0085      0.1394     -0.7714
         2        -0.0709     -0.0730      0.0695
         3        -0.0138     -0.1077      0.4676
 <0|del|b> * <b|rxdel|0> + <0|del|b> * <b|delr+rdel|0>
 Rotatory Strengths (R) in cgs (10**-40 erg-esu-cm/Gauss)
       state          XX          YY          ZZ    R(velocity)
         1       -23.0502    -29.1446     14.5243    -12.5568
 Total R(velocity) tensor for State=          1
                 1             2             3 
      1  -0.230502D+02  0.430492D+01 -0.652774D+02
      2  -0.323426D+01 -0.291446D+02  0.656779D+02
      3   0.463916D+00 -0.533796D+01  0.145243D+02
 R(velocity) tensor in inp. orien. for State=          1
                 1             2             3 
      1  -0.235349D+02  0.203786D+02 -0.629100D+02
      2  -0.279920D+01 -0.405700D+02  0.506826D+02
      3   0.134583D+00 -0.193901D+02  0.264344D+02
         2         3.5112      1.5231     77.8863     27.6402
 Total R(velocity) tensor for State=          2
                 1             2             3 
      1   0.351116D+01 -0.858692D+02  0.391693D+02
      2  -0.822049D+00  0.152309D+01 -0.149945D+03
      3  -0.197155D+01  0.613996D+02  0.778863D+02
 R(velocity) tensor in inp. orien. for State=          2
                 1             2             3 
      1   0.509113D+01 -0.930477D+02  0.197591D+02
      2  -0.120177D+01  0.255938D+02 -0.162463D+03
      3  -0.275156D+01  0.488415D+02  0.522357D+02
         3        -6.7218     -6.8838      8.8442     -1.5871
 Total R(velocity) tensor for State=          3
                 1             2             3 
      1  -0.672179D+01 -0.290611D+01  0.214619D+02
      2   0.189914D+01 -0.688378D+01  0.210344D+02
      3  -0.446889D+01 -0.389759D+00  0.884423D+01
 R(velocity) tensor in inp. orien. for State=          3
                 1             2             3 
      1  -0.658683D+01 -0.802117D+01  0.198955D+02
      2   0.305717D+01 -0.109243D+02  0.163792D+02
      3  -0.371706D+01 -0.539707D+01  0.127497D+02
 1/2[<0|r|b>*<b|rxdel|0> + (<0|rxdel|b>*<b|r|0>)*]
 Rotatory Strengths (R) in cgs (10**-40 erg-esu-cm/Gauss)
       state          XX          YY          ZZ     R(length)     R(au)
         1        -1.9898     34.6926    -58.0108     -8.4360     -0.0179
         2        97.2255      2.9962     -1.5876     32.8780      0.0697
         3         2.1088     33.1065    -39.3502     -1.3783     -0.0029
  1/2[<0|del|b>*<b|r|0> + (<0|r|b>*<b|del|0>)*] (Au)
       state          X           Y           Z        Dip. S.   Osc.(frdel)
         1        -0.0161     -0.0181     -0.0022      0.0363      0.0242
         2        -0.5381     -0.0006      0.0000      0.5387      0.3591
         3        -0.0082     -0.0346     -0.0027      0.0455      0.0303
 Ground to excited state transition densities written to RWF  633

 Excitation energies and oscillator strengths:
 
 Excited State   1:      Singlet-A      4.5980 eV  269.65 nm  f=0.0277  <S**2>=0.000
      53 -> 55         0.17901
      54 -> 55         0.19022
      54 -> 56         0.65437
 This state for optimization and/or second-order correction.
 Copying the excited state density for this state as the 1-particle RhoCI density.
 
 Excited State   2:      Singlet-A      4.7740 eV  259.71 nm  f=0.4399  <S**2>=0.000
      54 -> 55         0.66772
      54 -> 56        -0.18387
 
 Excited State   3:      Singlet-A      6.0342 eV  205.47 nm  f=0.0370  <S**2>=0.000
      52 -> 56        -0.41049
      53 -> 55         0.55470
      54 -> 56        -0.13918
 SavETr:  write IOETrn=   770 NScale= 10 NData=  16 NLR=1 LETran=      62.

 **********************************************************************

            Population analysis using the SCF density.

 **********************************************************************

 Orbital symmetries:
       Occupied  (A) (A) (A) (A) (A) (A) (A) (A) (A) (A) (A) (A)
                 (A) (A) (A) (A) (A) (A) (A) (A) (A) (A) (A) (A)
                 (A) (A) (A) (A) (A) (A) (A) (A) (A) (A) (A) (A)
                 (A) (A) (A) (A) (A) (A) (A) (A) (A) (A) (A) (A)
                 (A) (A) (A) (A) (A) (A)
       Virtual   (A) (A) (A) (A) (A) (A) (A) (A) (A) (A) (A) (A)
                 (A) (A) (A) (A) (A) (A) (A) (A) (A) (A) (A) (A)
                 (A) (A) (A) (A) (A) (A) (A) (A) (A) (A) (A) (A)
                 (A) (A) (A) (A) (A) (A) (A) (A) (A) (A) (A) (A)
                 (A) (A) (A) (A) (A) (A) (A) (A) (A) (A) (A) (A)
                 (A) (A) (A) (A) (A) (A) (A) (A) (A) (A) (A) (A)
                 (A) (A) (A) (A) (A) (A) (A) (A) (A) (A) (A) (A)
                 (A) (A) (A) (A) (A) (A) (A) (A) (A) (A) (A) (A)
                 (A) (A) (A) (A) (A) (A) (A) (A) (A) (A) (A) (A)
                 (A) (A) (A) (A) (A)
 The electronic state is 1-A.
 Alpha  occ. eigenvalues --  -14.27233 -14.23411 -10.17836 -10.16989 -10.16681
 Alpha  occ. eigenvalues --  -10.15730 -10.14561 -10.14293 -10.14158 -10.13221
 Alpha  occ. eigenvalues --  -10.13121 -10.13049 -10.12547 -10.11758 -10.11295
 Alpha  occ. eigenvalues --   -0.96358  -0.92278  -0.87942  -0.81455  -0.79955
 Alpha  occ. eigenvalues --   -0.76591  -0.75553  -0.72806  -0.66280  -0.64919
 Alpha  occ. eigenvalues --   -0.64067  -0.59298  -0.57831  -0.56969  -0.53646
 Alpha  occ. eigenvalues --   -0.50112  -0.49123  -0.47403  -0.46877  -0.45233
 Alpha  occ. eigenvalues --   -0.43922  -0.42912  -0.41772  -0.40714  -0.40503
 Alpha  occ. eigenvalues --   -0.39593  -0.38758  -0.38138  -0.37609  -0.35594
 Alpha  occ. eigenvalues --   -0.34873  -0.34258  -0.33915  -0.33537  -0.33087
 Alpha  occ. eigenvalues --   -0.32136  -0.28188  -0.26815  -0.20490
 Alpha virt. eigenvalues --   -0.02039  -0.00789   0.06518   0.09283   0.10173
 Alpha virt. eigenvalues --    0.10713   0.11997   0.12603   0.13288   0.14949
 Alpha virt. eigenvalues --    0.15632   0.16135   0.17741   0.18072   0.18408
 Alpha virt. eigenvalues --    0.18635   0.19711   0.20031   0.20698   0.21046
 Alpha virt. eigenvalues --    0.22207   0.23258   0.23975   0.25239   0.26215
 Alpha virt. eigenvalues --    0.27039   0.28960   0.29738   0.31278   0.35181
 Alpha virt. eigenvalues --    0.37042   0.37755   0.39483   0.41226   0.52109
 Alpha virt. eigenvalues --    0.55243   0.60589   0.63770   0.66305   0.66605
 Alpha virt. eigenvalues --    0.67427   0.68662   0.69660   0.70592   0.70829
 Alpha virt. eigenvalues --    0.71666   0.72758   0.74690   0.75259   0.75652
 Alpha virt. eigenvalues --    0.77095   0.77349   0.78383   0.78688   0.79846
 Alpha virt. eigenvalues --    0.80295   0.81108   0.83719   0.86485   0.87926
 Alpha virt. eigenvalues --    0.89945   0.90580   0.93397   0.94178   0.94686
 Alpha virt. eigenvalues --    0.96066   0.96838   0.99524   1.00733   1.01364
 Alpha virt. eigenvalues --    1.02339   1.04677   1.05687   1.07219   1.08018
 Alpha virt. eigenvalues --    1.08936   1.09677   1.10317   1.11960   1.13485
 Alpha virt. eigenvalues --    1.15042   1.16378   1.17217   1.21118   1.21592
 Alpha virt. eigenvalues --    1.22479   1.25589   1.28333   1.29760   1.32154
 Alpha virt. eigenvalues --    1.35164   1.38371   1.40726   1.42805   1.50829
 Alpha virt. eigenvalues --    1.52631   1.53928   1.54654   1.55257   1.62754
 Alpha virt. eigenvalues --    1.74657   1.79021   1.79610   1.87294   1.92181
 Alpha virt. eigenvalues --    1.98206   2.01562   2.20568   2.32688   2.43126
 Alpha virt. eigenvalues --    2.51992   3.00816   3.04430
          Condensed to atoms (all electrons):
              1          2          3          4          5          6
     1  C    5.445730   0.445549  -0.087823  -0.032268  -0.086110   0.450818
     2  C    0.445549   5.114584   0.458809  -0.058378  -0.034319  -0.054916
     3  C   -0.087823   0.458809   5.276301   0.413767  -0.063983  -0.032587
     4  C   -0.032268  -0.058378   0.413767   4.969119   0.395961  -0.056345
     5  C   -0.086110  -0.034319  -0.063983   0.395961   5.247929   0.439011
     6  C    0.450818  -0.054916  -0.032587  -0.056345   0.439011   5.127394
     7  H   -0.043819   0.397518  -0.034919   0.004234  -0.000179   0.003795
     8  H    0.004489  -0.035073   0.367597  -0.059207   0.004733  -0.000175
     9  H    0.004536  -0.000185   0.004213  -0.052621   0.388721  -0.038570
    10  H   -0.042740   0.003826  -0.000190   0.004001  -0.035378   0.397060
    11  C    0.067434  -0.076154   0.004538  -0.000054   0.004559  -0.077118
    12  N   -0.118911  -0.000666  -0.000007   0.000001  -0.000006  -0.000717
    13  N   -0.000362   0.004196  -0.059237   0.290622  -0.055211   0.004477
    14  C    0.000012   0.000138   0.000074  -0.062191   0.000793  -0.000101
    15  H   -0.000010  -0.000006   0.002643  -0.001191   0.001032  -0.000022
    16  C   -0.000006  -0.000119   0.002414  -0.064316  -0.010495   0.000635
    17  H   -0.000005  -0.000003   0.000136  -0.003980   0.000045  -0.000243
    18  C   -0.000001   0.000004  -0.000057   0.000068  -0.000667  -0.000012
    19  H    0.000000   0.000000  -0.000002   0.000139  -0.000043   0.000000
    20  H    0.000000  -0.000003  -0.000026   0.001591   0.001782  -0.000017
    21  H    0.000000   0.000000  -0.000001  -0.000036  -0.000067  -0.000001
    22  C   -0.000024   0.000586  -0.042566   0.000365  -0.000218   0.000005
    23  H   -0.000030   0.001055  -0.020322   0.000816  -0.000093  -0.000001
    24  H    0.000001  -0.000024   0.000238   0.000489   0.000014   0.000000
    25  H    0.000000  -0.000010   0.000964   0.000005   0.000004   0.000000
    26  C    0.000000   0.000001  -0.000128   0.004911  -0.000115   0.000001
    27  H    0.000000   0.000000   0.000004  -0.000075   0.000002   0.000000
    28  H    0.000000   0.000000  -0.000001  -0.000125   0.000000   0.000000
    29  C    0.000000   0.000001  -0.000094   0.004581   0.000182  -0.000006
    30  H    0.000000   0.000000   0.000001  -0.000063  -0.000001   0.000000
    31  H    0.000000   0.000000   0.000002  -0.000159   0.000018   0.000000
              7          8          9         10         11         12
     1  C   -0.043819   0.004489   0.004536  -0.042740   0.067434  -0.118911
     2  C    0.397518  -0.035073  -0.000185   0.003826  -0.076154  -0.000666
     3  C   -0.034919   0.367597   0.004213  -0.000190   0.004538  -0.000007
     4  C    0.004234  -0.059207  -0.052621   0.004001  -0.000054   0.000001
     5  C   -0.000179   0.004733   0.388721  -0.035378   0.004559  -0.000006
     6  C    0.003795  -0.000175  -0.038570   0.397060  -0.077118  -0.000717
     7  H    0.483673  -0.003926   0.000002  -0.000053  -0.006048  -0.000083
     8  H   -0.003926   0.501521  -0.000044   0.000001  -0.000101   0.000000
     9  H    0.000002  -0.000044   0.496553  -0.004064  -0.000082   0.000000
    10  H   -0.000053   0.000001  -0.004064   0.481489  -0.006221  -0.000090
    11  C   -0.006048  -0.000101  -0.000082  -0.006221   4.959139   0.850123
    12  N   -0.000083   0.000000   0.000000  -0.000090   0.850123   6.753922
    13  N   -0.000016  -0.008286  -0.008067  -0.000015   0.000000   0.000000
    14  C   -0.000003  -0.001515   0.000012   0.000001   0.000000   0.000000
    15  H    0.000000   0.000118   0.000020   0.000000   0.000000   0.000000
    16  C    0.000001  -0.000011   0.000980   0.000000   0.000000   0.000000
    17  H    0.000000   0.000004   0.010510   0.000006   0.000000   0.000000
    18  C    0.000000  -0.000007  -0.000634   0.000000   0.000000   0.000000
    19  H    0.000000   0.000001  -0.000003   0.000000   0.000000   0.000000
    20  H    0.000000   0.000000   0.000876  -0.000002   0.000000   0.000000
    21  H    0.000000   0.000000   0.000126   0.000000   0.000000   0.000000
    22  C    0.000042  -0.008266  -0.000002   0.000000   0.000000   0.000000
    23  H    0.000052   0.023328   0.000000   0.000000   0.000000   0.000000
    24  H   -0.000001   0.000930   0.000000   0.000000   0.000000   0.000000
    25  H   -0.000001   0.000564   0.000000   0.000000   0.000000   0.000000
    26  C    0.000000   0.000015   0.000001   0.000000   0.000000   0.000000
    27  H    0.000000   0.000002   0.000000   0.000000   0.000000   0.000000
    28  H    0.000000  -0.000009   0.000000   0.000000   0.000000   0.000000
    29  C    0.000000  -0.000012   0.000021   0.000000   0.000000   0.000000
    30  H    0.000000   0.000000   0.000003   0.000000   0.000000   0.000000
    31  H    0.000000   0.000000  -0.000026   0.000000   0.000000   0.000000
             13         14         15         16         17         18
     1  C   -0.000362   0.000012  -0.000010  -0.000006  -0.000005  -0.000001
     2  C    0.004196   0.000138  -0.000006  -0.000119  -0.000003   0.000004
     3  C   -0.059237   0.000074   0.002643   0.002414   0.000136  -0.000057
     4  C    0.290622  -0.062191  -0.001191  -0.064316  -0.003980   0.000068
     5  C   -0.055211   0.000793   0.001032  -0.010495   0.000045  -0.000667
     6  C    0.004477  -0.000101  -0.000022   0.000635  -0.000243  -0.000012
     7  H   -0.000016  -0.000003   0.000000   0.000001   0.000000   0.000000
     8  H   -0.008286  -0.001515   0.000118  -0.000011   0.000004  -0.000007
     9  H   -0.008067   0.000012   0.000020   0.000980   0.010510  -0.000634
    10  H   -0.000015   0.000001   0.000000   0.000000   0.000006   0.000000
    11  C    0.000000   0.000000   0.000000   0.000000   0.000000   0.000000
    12  N    0.000000   0.000000   0.000000   0.000000   0.000000   0.000000
    13  N    7.275961   0.262320  -0.046689   0.258308  -0.041111  -0.062640
    14  C    0.262320   5.311840   0.356308  -0.079584   0.001313   0.004387
    15  H   -0.046689   0.356308   0.589344   0.000832   0.000978  -0.000221
    16  C    0.258308  -0.079584   0.000832   5.315914   0.362560   0.273210
    17  H   -0.041111   0.001313   0.000978   0.362560   0.560902  -0.062448
    18  C   -0.062640   0.004387  -0.000221   0.273210  -0.062448   5.373442
    19  H    0.001580   0.000215   0.000021  -0.042562   0.004046   0.366346
    20  H   -0.001678  -0.000023  -0.000001  -0.037850  -0.002772   0.367232
    21  H    0.003045  -0.000115   0.000008  -0.038334   0.001840   0.342065
    22  C   -0.059740   0.279347  -0.060537   0.004606  -0.000145  -0.000093
    23  H   -0.000798  -0.044603  -0.002353  -0.000073  -0.000003   0.000005
    24  H    0.003833  -0.041331   0.004646   0.000010   0.000009  -0.000042
    25  H    0.002710  -0.037706   0.001851  -0.000088   0.000003   0.000000
    26  C   -0.070854   0.269474  -0.046827  -0.091257   0.004580   0.001197
    27  H    0.002617  -0.036641  -0.001110   0.004006  -0.000040  -0.000100
    28  H    0.001538  -0.046956   0.004212   0.000582   0.000033   0.000859
    29  C   -0.051271  -0.089706  -0.001906   0.270662  -0.035950  -0.073524
    30  H    0.002292   0.004307  -0.000119  -0.038932   0.001232  -0.002225
    31  H    0.001262   0.000694   0.002032  -0.039706  -0.003844   0.003473
             19         20         21         22         23         24
     1  C    0.000000   0.000000   0.000000  -0.000024  -0.000030   0.000001
     2  C    0.000000  -0.000003   0.000000   0.000586   0.001055  -0.000024
     3  C   -0.000002  -0.000026  -0.000001  -0.042566  -0.020322   0.000238
     4  C    0.000139   0.001591  -0.000036   0.000365   0.000816   0.000489
     5  C   -0.000043   0.001782  -0.000067  -0.000218  -0.000093   0.000014
     6  C    0.000000  -0.000017  -0.000001   0.000005  -0.000001   0.000000
     7  H    0.000000   0.000000   0.000000   0.000042   0.000052  -0.000001
     8  H    0.000001   0.000000   0.000000  -0.008266   0.023328   0.000930
     9  H   -0.000003   0.000876   0.000126  -0.000002   0.000000   0.000000
    10  H    0.000000  -0.000002   0.000000   0.000000   0.000000   0.000000
    11  C    0.000000   0.000000   0.000000   0.000000   0.000000   0.000000
    12  N    0.000000   0.000000   0.000000   0.000000   0.000000   0.000000
    13  N    0.001580  -0.001678   0.003045  -0.059740  -0.000798   0.003833
    14  C    0.000215  -0.000023  -0.000115   0.279347  -0.044603  -0.041331
    15  H    0.000021  -0.000001   0.000008  -0.060537  -0.002353   0.004646
    16  C   -0.042562  -0.037850  -0.038334   0.004606  -0.000073   0.000010
    17  H    0.004046  -0.002772   0.001840  -0.000145  -0.000003   0.000009
    18  C    0.366346   0.367232   0.342065  -0.000093   0.000005  -0.000042
    19  H    0.520910  -0.025988  -0.024681  -0.000088  -0.000001   0.000091
    20  H   -0.025988   0.514972  -0.026887   0.000001   0.000000   0.000001
    21  H   -0.024681  -0.026887   0.560116  -0.000001   0.000000   0.000002
    22  C   -0.000088   0.000001  -0.000001   5.451671   0.347370   0.355948
    23  H   -0.000001   0.000000   0.000000   0.347370   0.530905  -0.030603
    24  H    0.000091   0.000001   0.000002   0.355948  -0.030603   0.520071
    25  H    0.000002   0.000000   0.000000   0.342657  -0.023894  -0.020868
    26  C    0.001589  -0.000179   0.000196  -0.055081   0.003914  -0.004592
    27  H   -0.000015   0.000001   0.000002   0.000217  -0.000076   0.000031
    28  H    0.001775  -0.000042   0.000057  -0.004270   0.000079   0.005290
    29  C   -0.003366   0.003792  -0.000889   0.004902  -0.000147  -0.000050
    30  H    0.000576   0.000096   0.001540  -0.000069   0.000001  -0.000003
    31  H    0.000030  -0.000085   0.000007  -0.000053   0.000004   0.000003
             25         26         27         28         29         30
     1  C    0.000000   0.000000   0.000000   0.000000   0.000000   0.000000
     2  C   -0.000010   0.000001   0.000000   0.000000   0.000001   0.000000
     3  C    0.000964  -0.000128   0.000004  -0.000001  -0.000094   0.000001
     4  C    0.000005   0.004911  -0.000075  -0.000125   0.004581  -0.000063
     5  C    0.000004  -0.000115   0.000002   0.000000   0.000182  -0.000001
     6  C    0.000000   0.000001   0.000000   0.000000  -0.000006   0.000000
     7  H   -0.000001   0.000000   0.000000   0.000000   0.000000   0.000000
     8  H    0.000564   0.000015   0.000002  -0.000009  -0.000012   0.000000
     9  H    0.000000   0.000001   0.000000   0.000000   0.000021   0.000003
    10  H    0.000000   0.000000   0.000000   0.000000   0.000000   0.000000
    11  C    0.000000   0.000000   0.000000   0.000000   0.000000   0.000000
    12  N    0.000000   0.000000   0.000000   0.000000   0.000000   0.000000
    13  N    0.002710  -0.070854   0.002617   0.001538  -0.051271   0.002292
    14  C   -0.037706   0.269474  -0.036641  -0.046956  -0.089706   0.004307
    15  H    0.001851  -0.046827  -0.001110   0.004212  -0.001906  -0.000119
    16  C   -0.000088  -0.091257   0.004006   0.000582   0.270662  -0.038932
    17  H    0.000003   0.004580  -0.000040   0.000033  -0.035950   0.001232
    18  C    0.000000   0.001197  -0.000100   0.000859  -0.073524  -0.002225
    19  H    0.000002   0.001589  -0.000015   0.001775  -0.003366   0.000576
    20  H    0.000000  -0.000179   0.000001  -0.000042   0.003792   0.000096
    21  H    0.000000   0.000196   0.000002   0.000057  -0.000889   0.001540
    22  C    0.342657  -0.055081   0.000217  -0.004270   0.004902  -0.000069
    23  H   -0.023894   0.003914  -0.000076   0.000079  -0.000147   0.000001
    24  H   -0.020868  -0.004592   0.000031   0.005290  -0.000050  -0.000003
    25  H    0.542355  -0.003129   0.001600   0.000175  -0.000020  -0.000001
    26  C   -0.003129   5.421307   0.374469   0.369936   0.265860  -0.032110
    27  H    0.001600   0.374469   0.518796  -0.025726  -0.032685   0.000293
    28  H    0.000175   0.369936  -0.025726   0.528130  -0.043589  -0.003978
    29  C   -0.000020   0.265860  -0.032685  -0.043589   5.426436   0.380609
    30  H   -0.000001  -0.032110   0.000293  -0.003978   0.380609   0.511167
    31  H   -0.000001  -0.043176  -0.004029   0.003674   0.370333  -0.027451
             31
     1  C    0.000000
     2  C    0.000000
     3  C    0.000002
     4  C   -0.000159
     5  C    0.000018
     6  C    0.000000
     7  H    0.000000
     8  H    0.000000
     9  H   -0.000026
    10  H    0.000000
    11  C    0.000000
    12  N    0.000000
    13  N    0.001262
    14  C    0.000694
    15  H    0.002032
    16  C   -0.039706
    17  H   -0.003844
    18  C    0.003473
    19  H    0.000030
    20  H   -0.000085
    21  H    0.000007
    22  C   -0.000053
    23  H    0.000004
    24  H    0.000003
    25  H   -0.000001
    26  C   -0.043176
    27  H   -0.004029
    28  H    0.003674
    29  C    0.370333
    30  H   -0.027451
    31  H    0.532524
 Mulliken atomic charges:
              1
     1  C   -0.006462
     2  C   -0.166410
     3  C   -0.189756
     4  C    0.300341
     5  C   -0.197903
     6  C   -0.162365
     7  H    0.199731
     8  H    0.213330
     9  H    0.197725
    10  H    0.202369
    11  C    0.279984
    12  N   -0.483565
    13  N   -0.648786
    14  C   -0.050760
    15  H    0.196947
    16  C   -0.051388
    17  H    0.202348
    18  C   -0.529617
    19  H    0.199427
    20  H    0.205207
    21  H    0.182008
    22  C   -0.556565
    23  H    0.215468
    24  H    0.205906
    25  H    0.192828
    26  C   -0.370003
    27  H    0.198455
    28  H    0.208358
    29  C   -0.394163
    30  H    0.202833
    31  H    0.204477
 Sum of Mulliken atomic charges =   0.00000
 Mulliken charges with hydrogens summed into heavy atoms:
              1
     1  C   -0.006462
     2  C    0.033320
     3  C    0.023574
     4  C    0.300341
     5  C   -0.000178
     6  C    0.040004
    11  C    0.279984
    12  N   -0.483565
    13  N   -0.648786
    14  C    0.146188
    16  C    0.150960
    18  C    0.057025
    22  C    0.057638
    26  C    0.036810
    29  C    0.013148
 Sum of Mulliken charges with hydrogens summed into heavy atoms =   0.00000
 Electronic spatial extent (au):  <R**2>=           3848.1549
 Charge=              0.0000 electrons
 Dipole moment (field-independent basis, Debye):
    X=              6.6722    Y=              0.1417    Z=             -0.5422  Tot=              6.6957
 Quadrupole moment (field-independent basis, Debye-Ang):
   XX=           -117.6142   YY=            -81.6979   ZZ=            -92.0982
   XY=             -0.4373   XZ=             -2.2620   YZ=              1.6923
 Traceless Quadrupole moment (field-independent basis, Debye-Ang):
   XX=            -20.4775   YY=             15.4389   ZZ=              5.0386
   XY=             -0.4373   XZ=             -2.2620   YZ=              1.6923
 Octapole moment (field-independent basis, Debye-Ang**2):
  XXX=            246.0511  YYY=              0.1654  ZZZ=             -0.9419  XYY=             -2.3910
  XXY=              2.8897  XXZ=              3.8974  XZZ=              9.1002  YZZ=              0.6066
  YYZ=             -0.9724  XYZ=             -4.4401
 Hexadecapole moment (field-independent basis, Debye-Ang**3):
 XXXX=          -5373.0491 YYYY=           -933.1731 ZZZZ=           -262.9095 XXXY=            -20.8330
 XXXZ=            -47.2779 YYYX=              0.5070 YYYZ=              9.5899 ZZZX=             -1.5889
 ZZZY=              0.2915 XXYY=           -784.3958 XXZZ=           -715.3493 YYZZ=           -208.0748
 XXYZ=              6.2237 YYXZ=             -2.7370 ZZXY=              3.7255
 N-N= 9.535907896960D+02 E-N=-3.322973915782D+03  KE= 6.067655923429D+02
 1|1|UNPC-DESKTOP-K2VF0AK|SP|RTD-B3LYP-FC|3-21G|C13H16N2|MELIH|17-Dec-2
 024|0||# td b3lyp/3-21g geom=connectivity||Title Card Required||0,1|C,
 0,-2.94502,-0.056626,-0.04359|C,0,-2.282732,1.015204,0.538791|C,0,-0.9
 02594,1.027133,0.588178|C,0,-0.162743,-0.021677,0.063298|C,0,-0.835555
 ,-1.091127,-0.517947|C,0,-2.213228,-1.112699,-0.573925|H,0,-2.847229,1
 .82906,0.946497|H,0,-0.378243,1.84767,1.03065|H,0,-0.275943,-1.908324,
 -0.926556|H,0,-2.725895,-1.939112,-1.02299|C,0,-4.37221,-0.075303,-0.0
 9871|N,0,-5.511845,-0.09049,-0.142902|N,0,1.258466,0.020349,0.137061|C
 ,0,1.94180202,1.30883999,-0.12551882|H,0,1.62643137,1.73481786,-1.0769
 2341|C,0,2.01792186,-1.13000298,-0.43400499|H,0,1.45293676,-1.59463397
 ,-1.23433877|C,0,2.29586079,-2.16013875,0.66304154|H,0,2.88236848,-1.7
 0442556,1.45135085|H,0,1.36594011,-2.51576176,1.09148701|H,0,2.8371953
 2,-3.01131008,0.26347547|C,0,1.68260618,2.31000711,0.99953993|H,0,0.63
 113039,2.56503131,1.05856925|H,0,1.9853032,1.8727678,1.94285042|H,0,2.
 24479517,3.22245879,0.83204084|C,0,3.40735593,0.86026738,-0.22801548|H
 ,0,4.02499279,1.58956723,-0.73533989|H,0,3.79757113,0.69737456,0.76923
 162|C,0,3.3105999,-0.47709309,-0.98861965|H,0,4.1765736,-1.10822426,-0
 .84142617|H,0,3.20252488,-0.28207955,-2.04951487||Version=IA32W-G09Rev
 A.02|State=1-A|HF=-611.1306944|RMSD=4.028e-009|PG=C01 [X(C13H16N2)]||@


 NOTHING RESEMBLES A NEW PHENOMENON AS MUCH AS A MISTAKE.

                               -- ENRICO FERMI (?)
 Job cpu time:  0 days  0 hours  6 minutes 10.0 seconds.
 File lengths (MBytes):  RWF=     64 Int=      0 D2E=      0 Chk=      5 Scr=      1
 Normal termination of Gaussian 09 at Tue Dec 17 23:53:50 2024.
