 Entering Link 1 = C:\G09W\l1.exe PID=     10516.
  
 Copyright (c) 1988,1990,1992,1993,1995,1998,2003,2009, Gaussian, Inc.
                  All Rights Reserved.
  
 This is part of the Gaussian(R) 09 program.  It is based on
 the Gaussian(R) 03 system (copyright 2003, Gaussian, Inc.),
 the Gaussian(R) 98 system (copyright 1998, Gaussian, Inc.),
 the Gaussian(R) 94 system (copyright 1995, Gaussian, Inc.),
 the Gaussian 92(TM) system (copyright 1992, Gaussian, Inc.),
 the Gaussian 90(TM) system (copyright 1990, Gaussian, Inc.),
 the Gaussian 88(TM) system (copyright 1988, Gaussian, Inc.),
 the Gaussian 86(TM) system (copyright 1986, Carnegie Mellon
 University), and the Gaussian 82(TM) system (copyright 1983,
 Carnegie Mellon University). Gaussian is a federally registered
 trademark of Gaussian, Inc.
  
 This software contains proprietary and confidential information,
 including trade secrets, belonging to Gaussian, Inc.
  
 This software is provided under written license and may be
 used, copied, transmitted, or stored only in accord with that
 written license.
  
 The following legend is applicable only to US Government
 contracts under FAR:
  
                    RESTRICTED RIGHTS LEGEND
  
 Use, reproduction and disclosure by the US Government is
 subject to restrictions as set forth in subparagraphs (a)
 and (c) of the Commercial Computer Software - Restricted
 Rights clause in FAR 52.227-19.
  
 Gaussian, Inc.
 340 Quinnipiac St., Bldg. 40, Wallingford CT 06492
  
  
 ---------------------------------------------------------------
 Warning -- This program may not be used in any manner that
 competes with the business of Gaussian, Inc. or will provide
 assistance to any competitor of Gaussian, Inc.  The licensee
 of this program is prohibited from giving any competitor of
 Gaussian, Inc. access to this program.  By using this program,
 the user acknowledges that Gaussian, Inc. is engaged in the
 business of creating and licensing software in the field of
 computational chemistry and represents and warrants to the
 licensee that it is not a competitor of Gaussian, Inc. and that
 it will not use this program in any manner prohibited above.
 ---------------------------------------------------------------
  

 Cite this work as:
 Gaussian 09, Revision A.02,
 M. J. Frisch, G. W. Trucks, H. B. Schlegel, G. E. Scuseria, 
 M. A. Robb, J. R. Cheeseman, G. Scalmani, V. Barone, B. Mennucci, 
 G. A. Petersson, H. Nakatsuji, M. Caricato, X. Li, H. P. Hratchian, 
 A. F. Izmaylov, J. Bloino, G. Zheng, J. L. Sonnenberg, M. Hada, 
 M. Ehara, K. Toyota, R. Fukuda, J. Hasegawa, M. Ishida, T. Nakajima, 
 Y. Honda, O. Kitao, H. Nakai, T. Vreven, J. A. Montgomery, Jr., 
 J. E. Peralta, F. Ogliaro, M. Bearpark, J. J. Heyd, E. Brothers, 
 K. N. Kudin, V. N. Staroverov, R. Kobayashi, J. Normand, 
 K. Raghavachari, A. Rendell, J. C. Burant, S. S. Iyengar, J. Tomasi, 
 M. Cossi, N. Rega, J. M. Millam, M. Klene, J. E. Knox, J. B. Cross, 
 V. Bakken, C. Adamo, J. Jaramillo, R. Gomperts, R. E. Stratmann, 
 O. Yazyev, A. J. Austin, R. Cammi, C. Pomelli, J. W. Ochterski, 
 R. L. Martin, K. Morokuma, V. G. Zakrzewski, G. A. Voth, 
 P. Salvador, J. J. Dannenberg, S. Dapprich, A. D. Daniels, 
 O. Farkas, J. B. Foresman, J. V. Ortiz, J. Cioslowski, 
 and D. J. Fox, Gaussian, Inc., Wallingford CT, 2009.
 
 ******************************************
 Gaussian 09:  IA32W-G09RevA.02 11-Jun-2009
                17-Dec-2024 
 ******************************************
 %chk=C:\G09W\Hw5\energy100.chk
 ----------------------------------
 # td b3lyp/3-21g geom=connectivity
 ----------------------------------
 1/38=1,57=2/1;
 2/12=2,17=6,18=5,40=1/2;
 3/5=5,11=2,16=1,25=1,30=1,74=-5/1,2,8,3;
 4//1;
 5/5=2,38=5/2;
 8/6=1,10=1/1;
 9/42=1/14;
 6/7=2,8=2,9=2,10=2/1;
 99/5=1,9=1/99;
 -------------------
 Title Card Required
 -------------------
 Symbolic Z-matrix:
 Charge =  0 Multiplicity = 1
 C                     2.94527   0.01853  -0.05867 
 C                     2.26963   1.0795    0.52823 
 C                     0.88983   1.0692    0.58661 
 C                     0.16343   0.00999   0.06384 
 C                     0.84955  -1.04826  -0.52234 
 C                     2.22712  -1.04897  -0.58477 
 H                     2.82368   1.90137   0.93419 
 H                     0.35551   1.87794   1.03878 
 H                     0.30036  -1.87256  -0.93081 
 H                     2.75008  -1.86695  -1.03738 
 C                     4.37224   0.02224  -0.12196 
 N                     5.5117    0.0249   -0.17263 
 N                    -1.25829   0.03513   0.1354 
 C                    -1.97328  -1.22866   0.4316 
 H                    -1.6696   -2.02173  -0.25024 
 C                    -1.99006   0.85641  -0.87267 
 H                    -1.41485   0.92916  -1.78889 
 C                    -2.24135   2.25794  -0.31187 
 H                    -2.83787   2.18872   0.5895 
 H                    -1.30248   2.73933  -0.06374 
 H                    -2.76218   2.87481  -1.03672 
 C                    -1.73729  -1.67065   1.87528 
 H                    -0.6923   -1.90116   2.04553 
 H                    -2.02803  -0.87104   2.54517 
 H                    -2.32185  -2.55608   2.10106 
 C                    -3.42754  -0.83137   0.13687 
 H                    -4.06347  -1.69202  -0.02315 
 H                    -3.81243  -0.25606   0.97005 
 C                    -3.29901   0.06056  -1.11387 
 H                    -4.1491    0.71469  -1.25309 
 H                    -3.19704  -0.5642   -1.99391 
 
                          Input orientation:                          
 ---------------------------------------------------------------------
 Center     Atomic      Atomic             Coordinates (Angstroms)
 Number     Number       Type             X           Y           Z
 ---------------------------------------------------------------------
      1          6           0        2.945271    0.018526   -0.058670
      2          6           0        2.269625    1.079500    0.528225
      3          6           0        0.889826    1.069202    0.586613
      4          6           0        0.163432    0.009987    0.063836
      5          6           0        0.849552   -1.048260   -0.522335
      6          6           0        2.227116   -1.048969   -0.584769
      7          1           0        2.823677    1.901365    0.934192
      8          1           0        0.355513    1.877940    1.038784
      9          1           0        0.300361   -1.872564   -0.930805
     10          1           0        2.750080   -1.866954   -1.037378
     11          6           0        4.372239    0.022238   -0.121963
     12          7           0        5.511702    0.024904   -0.172626
     13          7           0       -1.258289    0.035127    0.135401
     14          6           0       -1.973283   -1.228660    0.431598
     15          1           0       -1.669600   -2.021731   -0.250240
     16          6           0       -1.990060    0.856411   -0.872671
     17          1           0       -1.414853    0.929164   -1.788895
     18          6           0       -2.241353    2.257943   -0.311867
     19          1           0       -2.837872    2.188723    0.589505
     20          1           0       -1.302482    2.739333   -0.063737
     21          1           0       -2.762181    2.874807   -1.036715
     22          6           0       -1.737290   -1.670645    1.875285
     23          1           0       -0.692300   -1.901159    2.045528
     24          1           0       -2.028035   -0.871044    2.545165
     25          1           0       -2.321850   -2.556080    2.101064
     26          6           0       -3.427541   -0.831370    0.136875
     27          1           0       -4.063466   -1.692021   -0.023152
     28          1           0       -3.812429   -0.256058    0.970053
     29          6           0       -3.299012    0.060562   -1.113866
     30          1           0       -4.149096    0.714685   -1.253091
     31          1           0       -3.197044   -0.564198   -1.993915
 ---------------------------------------------------------------------
                    Distance matrix (angstroms):
                    1          2          3          4          5
     1  C    0.000000
     2  C    1.388023   0.000000
     3  C    2.396907   1.381072   0.000000
     4  C    2.784548   2.407398   1.386680   0.000000
     5  C    2.396885   2.765438   2.390614   1.390771   0.000000
     6  C    1.389990   2.402279   2.765344   2.408499   1.378978
     7  H    2.132051   1.071095   2.133796   3.378126   3.836526
     8  H    3.371746   2.135884   1.069582   2.115814   3.353180
     9  H    3.366362   3.836854   3.362144   2.133555   1.071418
    10  H    2.133308   3.370985   3.836522   3.380285   2.132495
    11  C    1.428376   2.441625   3.704783   4.212924   3.703456
    12  N    2.568968   3.480579   4.798827   5.353516   4.796834
    13  N    4.208070   3.700163   2.426376   1.423743   2.459540
    14  C    5.097844   4.831067   3.674451   2.497007   2.985118
    15  H    5.049394   5.073572   4.099372   2.754365   2.714371
    16  C    5.071700   4.489676   3.235511   2.496198   3.437136
    17  H    4.778453   4.355114   3.312732   2.601630   3.262194
    18  C    5.655101   4.737447   3.467658   3.313224   4.530891
    19  H    6.210848   5.226917   3.892181   3.745804   5.031038
    20  H    5.044425   3.983141   2.831697   3.100727   4.380345
    21  H    6.456773   5.566977   4.385494   4.240002   5.357206
    22  C    5.340399   5.043138   4.008638   3.117470   3.581577
    23  H    4.620039   4.467610   3.668052   2.883030   3.114268
    24  H    5.683754   5.132499   4.014273   3.425746   4.209687
    25  H    6.247849   6.064067   5.074554   4.112375   4.383325
    26  C    6.432207   6.021817   4.738575   3.688943   4.333027
    27  H    7.214543   6.934940   5.703619   4.557529   4.980097
    28  H    6.841065   6.242620   4.900463   4.086499   4.958716
    29  C    6.332951   5.894439   4.631991   3.657603   4.334741
    30  H    7.227816   6.671293   5.375958   4.563857   5.350557
    31  H    6.466280   6.240785   5.101924   3.982063   4.332990
                    6          7          8          9         10
     6  C    0.000000
     7  H    3.371587   0.000000
     8  H    3.834791   2.470490   0.000000
     9  H    2.123778   4.907940   4.236579   0.000000
    10  H    1.071189   4.253555   4.905979   2.452043   0.000000
    11  C    2.441972   2.654171   4.574391   4.563408   2.653004
    12  N    3.480168   3.460004   5.611376   5.597615   3.457380
    13  N    3.720478   4.558877   2.610827   2.684301   4.589155
    14  C    4.325349   5.749825   3.929749   2.727675   4.987531
    15  H    4.030207   6.081373   4.579312   2.089537   4.491894
    16  C    4.636586   5.246784   3.193570   3.563245   5.469257
    17  H    4.315885   5.130839   3.468449   3.395284   5.072447
    18  C    5.565731   5.228225   2.951673   4.889221   6.515792
    19  H    6.125004   5.679307   3.239776   5.352934   7.093693
    20  H    5.203919   4.327036   2.169446   4.958882   6.212014
    21  H    6.363439   6.002822   3.875752   5.650479   7.271129
    22  C    4.706895   5.869185   4.203810   3.473749   5.353376
    23  H    4.020905   5.296825   4.048832   3.137635   4.621197
    24  H    5.285305   5.815547   3.937943   4.301958   6.054489
    25  H    5.493467   6.907015   5.287461   4.066377   6.004098
    26  C    5.704670   6.868863   4.739757   4.015131   6.372935
    27  H    6.348256   7.826984   5.779248   4.460877   6.890840
    28  H    6.286675   6.978084   4.682991   4.810550   7.049205
    29  C    5.661192   6.713450   4.614360   4.089740   6.349227
    30  H    6.649301   7.403511   5.186266   5.157072   7.369533
    31  H    5.625140   7.134556   5.270860   3.882507   6.162825
                   11         12         13         14         15
    11  C    0.000000
    12  N    1.140592   0.000000
    13  N    5.636422   6.777003   0.000000
    14  C    6.491288   7.613246   1.481927   0.000000
    15  H    6.379505   7.467653   2.132735   1.089076   0.000000
    16  C    6.460515   7.580099   1.492047   2.459455   2.962063
    17  H    6.090288   7.169879   2.127611   3.146210   3.337684
    18  C    6.983841   8.069431   2.471311   3.575053   4.318137
    19  H    7.562113   8.659004   2.709109   3.528591   4.449489
    20  H    6.291935   7.335740   2.711889   4.054664   4.778838
    21  H    7.737821   8.793505   3.420428   4.429079   5.078224
    22  C    6.646894   7.721186   2.483203   1.528161   2.155388
    23  H    5.834983   6.864369   2.778153   2.167474   2.498040
    24  H    6.991068   8.064536   2.687121   2.144308   3.044150
    25  H    7.510020   8.555448   3.421893   2.161172   2.497917
    26  C    7.850618   8.985491   2.335909   1.536088   2.158048
    27  H    8.608692   9.729030   3.298060   2.188691   2.427112
    28  H    8.261884   9.398088   2.702788   2.149034   3.032892
    29  C    7.735207   8.860919   2.392878   2.410002   2.781507
    30  H    8.623925   9.745472   3.278181   3.368817   3.826432
    31  H    7.819345   8.916636   2.941419   2.796822   2.738227
                   16         17         18         19         20
    16  C    0.000000
    17  H    1.084261   0.000000
    18  C    1.530340   2.151829   0.000000
    19  H    2.152161   3.044381   1.083097   0.000000
    20  H    2.161604   2.503100   1.083875   1.757077   0.000000
    21  H    2.167257   2.483263   1.084982   1.766644   1.759478
    22  C    3.741813   4.504352   4.524547   4.214171   4.837021
    23  H    4.219510   4.820333   5.025437   4.842584   5.133760
    24  H    3.829771   4.732950   4.242487   3.720567   4.513050
    25  H    4.538533   5.301071   5.385493   5.006420   5.810927
    26  C    2.436009   3.295297   3.339501   3.110232   4.160053
    27  H    3.393406   4.123544   4.359550   4.115532   5.221263
    28  H    2.820327   3.842514   3.229830   2.659235   4.042391
    29  C    1.550776   2.181786   2.567163   2.764631   3.502102
    30  H    2.196871   2.794489   2.628123   2.699491   3.690119
    31  H    2.175346   2.334174   3.421566   3.792313   4.269459
                   21         22         23         24         25
    21  H    0.000000
    22  C    5.494659   0.000000
    23  H    6.049338   1.083570   0.000000
    24  H    5.234523   1.082883   1.759251   0.000000
    25  H    6.287614   1.084750   1.757111   1.767173   0.000000
    26  C    3.944080   2.565814   3.502706   2.785687   2.838171
    27  H    4.855571   3.002601   3.960800   3.378349   2.879604
    28  H    3.864253   2.669588   3.687575   2.458302   2.964981
    29  C    2.866027   3.790920   4.541483   3.983940   4.258807
    30  H    2.576136   4.614471   5.447290   4.630355   5.028627
    31  H    3.596122   4.280866   4.937439   4.697232   4.637069
                   26         27         28         29         30
    26  C    0.000000
    27  H    1.082003   0.000000
    28  H    1.083194   1.763935   0.000000
    29  C    1.541563   2.201272   2.169461   0.000000
    30  H    2.200667   2.704130   2.449093   1.081621   0.000000
    31  H    2.159809   2.430345   3.042820   1.084071   1.758057
                   31
    31  H    0.000000
 Stoichiometry    C13H16N2
 Framework group  C1[X(C13H16N2)]
 Deg. of freedom    87
 Full point group                 C1      NOp   1
 Largest Abelian subgroup         C1      NOp   1
 Largest concise Abelian subgroup C1      NOp   1
                         Standard orientation:                         
 ---------------------------------------------------------------------
 Center     Atomic      Atomic             Coordinates (Angstroms)
 Number     Number       Type             X           Y           Z
 ---------------------------------------------------------------------
      1          6           0        2.945451    0.015320   -0.062361
      2          6           0        2.284535    0.869658    0.809364
      3          6           0        0.904534    0.865303    0.863570
      4          6           0        0.163381    0.016831    0.055073
      5          6           0        0.834811   -0.835283   -0.815174
      6          6           0        2.212418   -0.840236   -0.876460
      7          1           0        2.850039    1.528063    1.437021
      8          1           0        0.381433    1.515444    1.532665
      9          1           0        0.274138   -1.495369   -1.445942
     10          1           0        2.724026   -1.498907   -1.548662
     11          6           0        4.372529    0.014038   -0.123227
     12          7           0        5.512076    0.012764   -0.172034
     13          7           0       -1.258023    0.043204    0.132268
     14          6           0       -1.994161   -1.240149    0.047340
     15          1           0       -1.700532   -1.804500   -0.836616
     16          6           0       -1.972777    1.134815   -0.591414
     17          1           0       -1.392989    1.462442   -1.447060
     18          6           0       -2.203879    2.315518    0.354352
     19          1           0       -2.804864    1.995953    1.196845
     20          1           0       -1.258422    2.688111    0.731274
     21          1           0       -2.712053    3.125521   -0.158328
     22          6           0       -1.770748   -2.088093    1.298880
     23          1           0       -0.730216   -2.375298    1.393380
     24          1           0       -2.051291   -1.514217    2.173293
     25          1           0       -2.370181   -2.991199    1.256924
     26          6           0       -3.440777   -0.750434   -0.117125
     27          1           0       -4.089700   -1.516383   -0.520797
     28          1           0       -3.819643   -0.437178    0.848090
     29          6           0       -3.293295    0.465523   -1.053134
     30          1           0       -4.132325    1.145591   -0.994498
     31          1           0       -3.197919    0.123281   -2.077334
 ---------------------------------------------------------------------
 Rotational constants (GHZ):      1.4263690      0.3176986      0.2905405
 Standard basis: 3-21G (6D, 7F)
 There are   167 symmetry adapted basis functions of A   symmetry.
 Integral buffers will be    262144 words long.
 Raffenetti 2 integral format.
 Two-electron integral symmetry is turned on.
   167 basis functions,   273 primitive gaussians,   167 cartesian basis functions
    54 alpha electrons       54 beta electrons
       nuclear repulsion energy       950.6588468641 Hartrees.
 NAtoms=   31 NActive=   31 NUniq=   31 SFac= 7.50D-01 NAtFMM=   80 NAOKFM=F Big=F
 One-electron integrals computed using PRISM.
 NBasis=   167 RedAO= T  NBF=   167
 NBsUse=   167 1.00D-06 NBFU=   167
 Harris functional with IExCor=  402 diagonalized for initial guess.
 ExpMin= 1.83D-01 ExpMax= 2.43D+02 ExpMxC= 2.43D+02 IAcc=1 IRadAn=         1 AccDes= 0.00D+00
 HarFok:  IExCor=  402 AccDes= 0.00D+00 IRadAn=         1 IDoV= 1
 ScaDFX=  1.000000  1.000000  1.000000  1.000000
 FoFCou: FMM=F IPFlag=           0 FMFlag=      100000 FMFlg1=           0
         NFxFlg=           0 DoJE=T BraDBF=F KetDBF=T FulRan=T
         Omega=  0.000000  0.000000  1.000000  0.000000  0.000000 ICntrl=     500 IOpCl=  0
         NMat0=    1 NMatS0=    1 NMatT0=    0 NMatD0=    1 NMtDS0=    0 NMtDT0=    0
         I1Cent=           4 NGrid=           0.
 Petite list used in FoFCou.
 Initial guess orbital symmetries:
       Occupied  (A) (A) (A) (A) (A) (A) (A) (A) (A) (A) (A) (A)
                 (A) (A) (A) (A) (A) (A) (A) (A) (A) (A) (A) (A)
                 (A) (A) (A) (A) (A) (A) (A) (A) (A) (A) (A) (A)
                 (A) (A) (A) (A) (A) (A) (A) (A) (A) (A) (A) (A)
                 (A) (A) (A) (A) (A) (A)
       Virtual   (A) (A) (A) (A) (A) (A) (A) (A) (A) (A) (A) (A)
                 (A) (A) (A) (A) (A) (A) (A) (A) (A) (A) (A) (A)
                 (A) (A) (A) (A) (A) (A) (A) (A) (A) (A) (A) (A)
                 (A) (A) (A) (A) (A) (A) (A) (A) (A) (A) (A) (A)
                 (A) (A) (A) (A) (A) (A) (A) (A) (A) (A) (A) (A)
                 (A) (A) (A) (A) (A) (A) (A) (A) (A) (A) (A) (A)
                 (A) (A) (A) (A) (A) (A) (A) (A) (A) (A) (A) (A)
                 (A) (A) (A) (A) (A) (A) (A) (A) (A) (A) (A) (A)
                 (A) (A) (A) (A) (A) (A) (A) (A) (A) (A) (A) (A)
                 (A) (A) (A) (A) (A)
 The electronic state of the initial guess is 1-A.
 Requested convergence on RMS density matrix=1.00D-08 within 128 cycles.
 Requested convergence on MAX density matrix=1.00D-06.
 Requested convergence on             energy=1.00D-06.
 No special actions if energy rises.
 Integral accuracy reduced to 1.0D-05 until final iterations.
 Initial convergence to 1.0D-05 achieved.  Increase integral accuracy.
 SCF Done:  E(RB3LYP) =  -611.149121449     A.U. after   16 cycles
             Convg  =    0.3776D-08             -V/T =  2.0074
 ExpMin= 1.83D-01 ExpMax= 2.43D+02 ExpMxC= 2.43D+02 IAcc=1 IRadAn=         1 AccDes= 0.00D+00
 HarFok:  IExCor=  205 AccDes= 0.00D+00 IRadAn=         1 IDoV=-2
 ScaDFX=  1.000000  1.000000  1.000000  1.000000
 Range of M.O.s used for correlation:    16   167
 NBasis=   167 NAE=    54 NBE=    54 NFC=    15 NFV=     0
 NROrb=    152 NOA=    39 NOB=    39 NVA=   113 NVB=   113
 Would need an additional   268100000 words for in-memory AO integral storage.
 Orbital symmetries:
       Occupied  (A) (A) (A) (A) (A) (A) (A) (A) (A) (A) (A) (A)
                 (A) (A) (A) (A) (A) (A) (A) (A) (A) (A) (A) (A)
                 (A) (A) (A) (A) (A) (A) (A) (A) (A) (A) (A) (A)
                 (A) (A) (A) (A) (A) (A) (A) (A) (A) (A) (A) (A)
                 (A) (A) (A) (A) (A) (A)
       Virtual   (A) (A) (A) (A) (A) (A) (A) (A) (A) (A) (A) (A)
                 (A) (A) (A) (A) (A) (A) (A) (A) (A) (A) (A) (A)
                 (A) (A) (A) (A) (A) (A) (A) (A) (A) (A) (A) (A)
                 (A) (A) (A) (A) (A) (A) (A) (A) (A) (A) (A) (A)
                 (A) (A) (A) (A) (A) (A) (A) (A) (A) (A) (A) (A)
                 (A) (A) (A) (A) (A) (A) (A) (A) (A) (A) (A) (A)
                 (A) (A) (A) (A) (A) (A) (A) (A) (A) (A) (A) (A)
                 (A) (A) (A) (A) (A) (A) (A) (A) (A) (A) (A) (A)
                 (A) (A) (A) (A) (A) (A) (A) (A) (A) (A) (A) (A)
                 (A) (A) (A) (A) (A)
    12 initial guesses have been made.
 Convergence on wavefunction:    0.001000000000000
 Iteration     1 Dimension    12 NMult    12
 CISAX will form    12 AO SS matrices at one time.
 No map to state      3
 Iteration     2 Dimension    18 NMult    18
 Iteration     3 Dimension    24 NMult    24
 Iteration     4 Dimension    30 NMult    30
 Iteration     5 Dimension    34 NMult    34
 ***********************************************************************
 Excited states from <AA,BB:AA,BB> singles matrix:
 ***********************************************************************
 
 Ground to excited state transition electric dipole moments (Au):
       state          X           Y           Z        Dip. S.      Osc.
         1         1.2440     -0.0101     -0.0085      1.5476      0.1520
         2        -0.0209     -0.1430     -0.1700      0.0498      0.0054
         3         0.0189      0.1617      0.1657      0.0540      0.0074
 Ground to excited state transition velocity dipole moments (Au):
       state          X           Y           Z        Dip. S.      Osc.
         1        -0.1496      0.0026     -0.0042      0.0224      0.1014
         2         0.0045      0.0219      0.0285      0.0013      0.0054
         3        -0.0044     -0.0279     -0.0287      0.0016      0.0053
 Ground to excited state transition magnetic dipole moments (Au):
       state          X           Y           Z
         1         0.2266     -0.0259      0.0700
         2         0.0562     -0.2708      0.4500
         3        -0.0388      0.0736     -0.1334
 <0|del|b> * <b|rxdel|0> + <0|del|b> * <b|delr+rdel|0>
 Rotatory Strengths (R) in cgs (10**-40 erg-esu-cm/Gauss)
       state          XX          YY          ZZ    R(velocity)
         1        -0.9175    -64.7472    -98.8000    -54.8215
 Total R(velocity) tensor for State=          1
                 1             2             3 
      1  -0.917462D+00 -0.338097D+02  0.113597D+02
      2  -0.270327D+01 -0.647472D+02  0.552403D+02
      3   0.258671D+01 -0.116374D+02 -0.988000D+02
 R(velocity) tensor in inp. orien. for State=          1
                 1             2             3 
      1  -0.351398D+00 -0.282389D+02  0.196532D+02
      2  -0.792717D+00 -0.559512D+02  0.423425D+02
      3   0.324683D+01 -0.247003D+02 -0.108162D+03
         2        13.8312     27.8581    -10.4856     10.4012
 Total R(velocity) tensor for State=          2
                 1             2             3 
      1   0.138312D+02  0.136187D+01 -0.323872D+01
      2  -0.222988D+01  0.278581D+02 -0.210598D+02
      3  -0.299931D+01  0.142599D+02 -0.104856D+02
 R(velocity) tensor in inp. orien. for State=          2
                 1             2             3 
      1   0.138552D+02  0.232326D+00 -0.307182D+01
      2  -0.326804D+01  0.226464D+02 -0.312267D+02
      3  -0.235633D+01  0.409573D+01 -0.529782D+01
         3         2.8658      2.3505      1.5065      2.2409
 Total R(velocity) tensor for State=          3
                 1             2             3 
      1   0.286577D+01  0.461260D-01 -0.484541D+00
      2  -0.136530D+01  0.235051D+01 -0.207130D+01
      3  -0.175976D+01 -0.127425D+01  0.150652D+01
 R(velocity) tensor in inp. orien. for State=          3
                 1             2             3 
      1   0.288935D+01 -0.774183D-01 -0.446106D+00
      2  -0.180265D+01  0.131424D+01 -0.202225D+01
      3  -0.126626D+01 -0.124474D+01  0.251922D+01
 1/2[<0|r|b>*<b|rxdel|0> + (<0|rxdel|b>*<b|r|0>)*]
 Rotatory Strengths (R) in cgs (10**-40 erg-esu-cm/Gauss)
       state          XX          YY          ZZ     R(length)     R(au)
         1      -199.3542     -0.1862      0.4207    -66.3732     -0.1408
         2         0.8309    -27.3925     54.1004      9.1796      0.0195
         3         0.5193     -8.4118     15.6353      2.5809      0.0055
  1/2[<0|del|b>*<b|r|0> + (<0|r|b>*<b|del|0>)*] (Au)
       state          X           Y           Z        Dip. S.   Osc.(frdel)
         1        -0.1861      0.0000      0.0000      0.1861      0.1241
         2        -0.0001     -0.0031     -0.0048      0.0081      0.0054
         3        -0.0001     -0.0045     -0.0048      0.0093      0.0062
 Ground to excited state transition densities written to RWF  633

 Excitation energies and oscillator strengths:
 
 Excited State   1:      Singlet-A      4.0100 eV  309.18 nm  f=0.1520  <S**2>=0.000
      53 -> 55        -0.10194
      54 -> 55         0.69537
 This state for optimization and/or second-order correction.
 Copying the excited state density for this state as the 1-particle RhoCI density.
 
 Excited State   2:      Singlet-A      4.4083 eV  281.25 nm  f=0.0054  <S**2>=0.000
      52 -> 55         0.11546
      54 -> 56         0.69615
 
 Excited State   3:      Singlet-A      5.5844 eV  222.02 nm  f=0.0074  <S**2>=0.000
      52 -> 55         0.53372
      53 -> 56         0.45649
 SavETr:  write IOETrn=   770 NScale= 10 NData=  16 NLR=1 LETran=      62.

 **********************************************************************

            Population analysis using the SCF density.

 **********************************************************************

 Orbital symmetries:
       Occupied  (A) (A) (A) (A) (A) (A) (A) (A) (A) (A) (A) (A)
                 (A) (A) (A) (A) (A) (A) (A) (A) (A) (A) (A) (A)
                 (A) (A) (A) (A) (A) (A) (A) (A) (A) (A) (A) (A)
                 (A) (A) (A) (A) (A) (A) (A) (A) (A) (A) (A) (A)
                 (A) (A) (A) (A) (A) (A)
       Virtual   (A) (A) (A) (A) (A) (A) (A) (A) (A) (A) (A) (A)
                 (A) (A) (A) (A) (A) (A) (A) (A) (A) (A) (A) (A)
                 (A) (A) (A) (A) (A) (A) (A) (A) (A) (A) (A) (A)
                 (A) (A) (A) (A) (A) (A) (A) (A) (A) (A) (A) (A)
                 (A) (A) (A) (A) (A) (A) (A) (A) (A) (A) (A) (A)
                 (A) (A) (A) (A) (A) (A) (A) (A) (A) (A) (A) (A)
                 (A) (A) (A) (A) (A) (A) (A) (A) (A) (A) (A) (A)
                 (A) (A) (A) (A) (A) (A) (A) (A) (A) (A) (A) (A)
                 (A) (A) (A) (A) (A) (A) (A) (A) (A) (A) (A) (A)
                 (A) (A) (A) (A) (A)
 The electronic state is 1-A.
 Alpha  occ. eigenvalues --  -14.25252 -14.24292 -10.17541 -10.16836 -10.16109
 Alpha  occ. eigenvalues --  -10.15971 -10.15349 -10.14818 -10.14721 -10.13845
 Alpha  occ. eigenvalues --  -10.13548 -10.12566 -10.12398 -10.10907 -10.10814
 Alpha  occ. eigenvalues --   -0.95261  -0.93069  -0.88391  -0.81210  -0.78628
 Alpha  occ. eigenvalues --   -0.77238  -0.75569  -0.71700  -0.65335  -0.64999
 Alpha  occ. eigenvalues --   -0.63924  -0.58646  -0.57642  -0.56947  -0.53089
 Alpha  occ. eigenvalues --   -0.49681  -0.48530  -0.46637  -0.45922  -0.44876
 Alpha  occ. eigenvalues --   -0.43391  -0.43110  -0.41675  -0.41255  -0.40202
 Alpha  occ. eigenvalues --   -0.39182  -0.38080  -0.37621  -0.37285  -0.36157
 Alpha  occ. eigenvalues --   -0.34390  -0.33966  -0.33827  -0.33572  -0.33359
 Alpha  occ. eigenvalues --   -0.33206  -0.27368  -0.26713  -0.20626
 Alpha virt. eigenvalues --   -0.03409  -0.01234   0.05768   0.09275   0.09826
 Alpha virt. eigenvalues --    0.10547   0.11663   0.13189   0.14239   0.14802
 Alpha virt. eigenvalues --    0.15801   0.16714   0.17156   0.18254   0.18750
 Alpha virt. eigenvalues --    0.19073   0.19997   0.20602   0.21387   0.21840
 Alpha virt. eigenvalues --    0.22446   0.22916   0.23257   0.25391   0.25677
 Alpha virt. eigenvalues --    0.27187   0.28510   0.28998   0.31028   0.32563
 Alpha virt. eigenvalues --    0.34111   0.36804   0.38504   0.39353   0.50973
 Alpha virt. eigenvalues --    0.54437   0.59875   0.63959   0.66069   0.66330
 Alpha virt. eigenvalues --    0.67711   0.69257   0.69864   0.70262   0.70659
 Alpha virt. eigenvalues --    0.72241   0.72545   0.74273   0.75333   0.75812
 Alpha virt. eigenvalues --    0.76244   0.77207   0.77404   0.78200   0.79250
 Alpha virt. eigenvalues --    0.79933   0.81475   0.83195   0.84838   0.86874
 Alpha virt. eigenvalues --    0.89241   0.91143   0.93897   0.94033   0.95240
 Alpha virt. eigenvalues --    0.95940   0.96649   0.99891   1.00712   1.00961
 Alpha virt. eigenvalues --    1.01440   1.04586   1.05739   1.06572   1.08301
 Alpha virt. eigenvalues --    1.08599   1.09444   1.09986   1.12087   1.12753
 Alpha virt. eigenvalues --    1.14136   1.15780   1.15974   1.18497   1.20514
 Alpha virt. eigenvalues --    1.21062   1.21932   1.24343   1.28677   1.29107
 Alpha virt. eigenvalues --    1.32796   1.35592   1.39310   1.41463   1.49590
 Alpha virt. eigenvalues --    1.51573   1.53004   1.54373   1.59640   1.62729
 Alpha virt. eigenvalues --    1.71584   1.75422   1.78866   1.84415   1.92476
 Alpha virt. eigenvalues --    1.95097   1.98838   2.20750   2.35610   2.44167
 Alpha virt. eigenvalues --    2.50785   2.99232   3.00573
          Condensed to atoms (all electrons):
              1          2          3          4          5          6
     1  C    5.432435   0.445920  -0.084580  -0.030293  -0.085443   0.447601
     2  C    0.445920   5.161606   0.419518  -0.068967  -0.022480  -0.059155
     3  C   -0.084580   0.419518   5.230721   0.437127  -0.102792  -0.024298
     4  C   -0.030293  -0.068967   0.437127   4.989483   0.359802  -0.050959
     5  C   -0.085443  -0.022480  -0.102792   0.359802   5.324105   0.403347
     6  C    0.447601  -0.059155  -0.024298  -0.050959   0.403347   5.162283
     7  H   -0.043702   0.396252  -0.033300   0.004125  -0.000247   0.003817
     8  H    0.004477  -0.037491   0.381219  -0.044320   0.005614  -0.000395
     9  H    0.004535  -0.000144   0.003940  -0.050842   0.393596  -0.041735
    10  H   -0.042891   0.003788  -0.000205   0.003614  -0.033479   0.396203
    11  C    0.070190  -0.077472   0.004186  -0.000132   0.004539  -0.077189
    12  N   -0.117646  -0.000750  -0.000006   0.000000  -0.000006  -0.000763
    13  N   -0.000339   0.004324  -0.068799   0.318661  -0.066752   0.004850
    14  C    0.000002  -0.000142   0.002490  -0.066462  -0.006101   0.000490
    15  H    0.000003   0.000013  -0.000206  -0.003996   0.000399  -0.000430
    16  C    0.000020  -0.000046  -0.001202  -0.067845  -0.001058  -0.000022
    17  H   -0.000014   0.000079  -0.000120  -0.002336   0.003830  -0.000165
    18  C   -0.000002   0.000011  -0.001596  -0.001163  -0.000279   0.000007
    19  H    0.000000   0.000002  -0.000030   0.000085   0.000008   0.000000
    20  H    0.000000   0.000058   0.001616   0.000980   0.000033  -0.000003
    21  H    0.000000   0.000001  -0.000010   0.000038   0.000009   0.000000
    22  C    0.000000   0.000021   0.000256  -0.002856  -0.001043  -0.000043
    23  H   -0.000012  -0.000023   0.000167   0.003256   0.001827   0.000055
    24  H    0.000000   0.000004  -0.000077   0.000354   0.000046  -0.000003
    25  H    0.000000   0.000000  -0.000008   0.000063  -0.000001  -0.000002
    26  C    0.000000   0.000001  -0.000138   0.005201   0.000058  -0.000003
    27  H    0.000000   0.000000   0.000000  -0.000088   0.000007   0.000000
    28  H    0.000000   0.000000   0.000004  -0.000152  -0.000001   0.000000
    29  C    0.000000   0.000001  -0.000010   0.005009  -0.000147   0.000003
    30  H    0.000000   0.000000   0.000000  -0.000059   0.000000   0.000000
    31  H    0.000000   0.000000   0.000004  -0.000170   0.000008   0.000000
              7          8          9         10         11         12
     1  C   -0.043702   0.004477   0.004535  -0.042891   0.070190  -0.117646
     2  C    0.396252  -0.037491  -0.000144   0.003788  -0.077472  -0.000750
     3  C   -0.033300   0.381219   0.003940  -0.000205   0.004186  -0.000006
     4  C    0.004125  -0.044320  -0.050842   0.003614  -0.000132   0.000000
     5  C   -0.000247   0.005614   0.393596  -0.033479   0.004539  -0.000006
     6  C    0.003817  -0.000395  -0.041735   0.396203  -0.077189  -0.000763
     7  H    0.478463  -0.004147   0.000002  -0.000052  -0.006308  -0.000105
     8  H   -0.004147   0.485281  -0.000041   0.000002  -0.000073   0.000000
     9  H    0.000002  -0.000041   0.493027  -0.003943  -0.000081   0.000000
    10  H   -0.000052   0.000002  -0.003943   0.478295  -0.006166  -0.000101
    11  C   -0.006308  -0.000073  -0.000081  -0.006166   4.955280   0.846814
    12  N   -0.000105   0.000000   0.000000  -0.000101   0.846814   6.748990
    13  N   -0.000020  -0.002015  -0.008451  -0.000019   0.000000   0.000000
    14  C    0.000001  -0.000090   0.002500  -0.000002   0.000000   0.000000
    15  H    0.000000   0.000016   0.008994   0.000006   0.000000   0.000000
    16  C    0.000000  -0.000338   0.000175   0.000000   0.000000   0.000000
    17  H    0.000000   0.000259   0.000246   0.000001   0.000000   0.000000
    18  C    0.000001   0.000224  -0.000009   0.000000   0.000000   0.000000
    19  H    0.000000   0.000266   0.000000   0.000000   0.000000   0.000000
    20  H   -0.000006   0.005313   0.000000   0.000000   0.000000   0.000000
    21  H    0.000000   0.000076   0.000000   0.000000   0.000000   0.000000
    22  C    0.000000  -0.000046  -0.000476   0.000000   0.000000   0.000000
    23  H    0.000000  -0.000012  -0.000019  -0.000002   0.000000   0.000000
    24  H    0.000000   0.000055   0.000015   0.000000   0.000000   0.000000
    25  H    0.000000   0.000001   0.000026   0.000000   0.000000   0.000000
    26  C    0.000000  -0.000007  -0.000114   0.000000   0.000000   0.000000
    27  H    0.000000   0.000000   0.000003   0.000000   0.000000   0.000000
    28  H    0.000000   0.000003   0.000003   0.000000   0.000000   0.000000
    29  C    0.000000   0.000002  -0.000059   0.000000   0.000000   0.000000
    30  H    0.000000   0.000000   0.000000   0.000000   0.000000   0.000000
    31  H    0.000000   0.000000   0.000019   0.000000   0.000000   0.000000
             13         14         15         16         17         18
     1  C   -0.000339   0.000002   0.000003   0.000020  -0.000014  -0.000002
     2  C    0.004324  -0.000142   0.000013  -0.000046   0.000079   0.000011
     3  C   -0.068799   0.002490  -0.000206  -0.001202  -0.000120  -0.001596
     4  C    0.318661  -0.066462  -0.003996  -0.067845  -0.002336  -0.001163
     5  C   -0.066752  -0.006101   0.000399  -0.001058   0.003830  -0.000279
     6  C    0.004850   0.000490  -0.000430  -0.000022  -0.000165   0.000007
     7  H   -0.000020   0.000001   0.000000   0.000000   0.000000   0.000001
     8  H   -0.002015  -0.000090   0.000016  -0.000338   0.000259   0.000224
     9  H   -0.008451   0.002500   0.008994   0.000175   0.000246  -0.000009
    10  H   -0.000019  -0.000002   0.000006   0.000000   0.000001   0.000000
    11  C    0.000000   0.000000   0.000000   0.000000   0.000000   0.000000
    12  N    0.000000   0.000000   0.000000   0.000000   0.000000   0.000000
    13  N    7.244063   0.262153  -0.049387   0.264979  -0.040479  -0.066285
    14  C    0.262153   5.298698   0.348426  -0.082581   0.001238   0.005531
    15  H   -0.049387   0.348426   0.616907   0.001002   0.000994  -0.000259
    16  C    0.264979  -0.082581   0.001002   5.302023   0.372232   0.268516
    17  H   -0.040479   0.001238   0.000994   0.372232   0.561496  -0.062724
    18  C   -0.066285   0.005531  -0.000259   0.268516  -0.062724   5.399775
    19  H    0.002799   0.000156   0.000027  -0.042911   0.004122   0.362197
    20  H   -0.001742  -0.000016  -0.000001  -0.038216  -0.001784   0.362113
    21  H    0.003131  -0.000146   0.000009  -0.036929   0.002391   0.333705
    22  C   -0.058109   0.282840  -0.062829   0.004470  -0.000141  -0.000079
    23  H   -0.002846  -0.037926  -0.003019  -0.000003  -0.000003   0.000003
    24  H    0.003774  -0.042011   0.004709   0.000039   0.000008  -0.000050
    25  H    0.002834  -0.037878   0.002153  -0.000088   0.000003  -0.000001
    26  C   -0.065601   0.270102  -0.047210  -0.090424   0.004904   0.000325
    27  H    0.002637  -0.036783  -0.001055   0.003998  -0.000035  -0.000103
    28  H    0.001422  -0.045752   0.004353   0.000630   0.000021   0.000771
    29  C   -0.051857  -0.090236  -0.002200   0.271999  -0.037848  -0.072793
    30  H    0.002304   0.004233  -0.000120  -0.038801   0.001301  -0.002376
    31  H    0.001183   0.001083   0.002043  -0.039161  -0.004411   0.003565
             19         20         21         22         23         24
     1  C    0.000000   0.000000   0.000000   0.000000  -0.000012   0.000000
     2  C    0.000002   0.000058   0.000001   0.000021  -0.000023   0.000004
     3  C   -0.000030   0.001616  -0.000010   0.000256   0.000167  -0.000077
     4  C    0.000085   0.000980   0.000038  -0.002856   0.003256   0.000354
     5  C    0.000008   0.000033   0.000009  -0.001043   0.001827   0.000046
     6  C    0.000000  -0.000003   0.000000  -0.000043   0.000055  -0.000003
     7  H    0.000000  -0.000006   0.000000   0.000000   0.000000   0.000000
     8  H    0.000266   0.005313   0.000076  -0.000046  -0.000012   0.000055
     9  H    0.000000   0.000000   0.000000  -0.000476  -0.000019   0.000015
    10  H    0.000000   0.000000   0.000000   0.000000  -0.000002   0.000000
    11  C    0.000000   0.000000   0.000000   0.000000   0.000000   0.000000
    12  N    0.000000   0.000000   0.000000   0.000000   0.000000   0.000000
    13  N    0.002799  -0.001742   0.003131  -0.058109  -0.002846   0.003774
    14  C    0.000156  -0.000016  -0.000146   0.282840  -0.037926  -0.042011
    15  H    0.000027  -0.000001   0.000009  -0.062829  -0.003019   0.004709
    16  C   -0.042911  -0.038216  -0.036929   0.004470  -0.000003   0.000039
    17  H    0.004122  -0.001784   0.002391  -0.000141  -0.000003   0.000008
    18  C    0.362197   0.362113   0.333705  -0.000079   0.000003  -0.000050
    19  H    0.528947  -0.027828  -0.023748  -0.000102  -0.000001   0.000104
    20  H   -0.027828   0.527134  -0.026380   0.000000   0.000000   0.000000
    21  H   -0.023748  -0.026380   0.566851  -0.000001   0.000000   0.000002
    22  C   -0.000102   0.000000  -0.000001   5.360900   0.368086   0.357857
    23  H   -0.000001   0.000000   0.000000   0.368086   0.519639  -0.026577
    24  H    0.000104   0.000000   0.000002   0.357857  -0.026577   0.524458
    25  H    0.000002   0.000000   0.000000   0.348463  -0.028505  -0.023259
    26  C    0.001761  -0.000166   0.000259  -0.058182   0.003827  -0.004448
    27  H   -0.000013   0.000001   0.000003   0.000215  -0.000080   0.000011
    28  H    0.001814  -0.000046   0.000062  -0.004682   0.000024   0.005337
    29  C   -0.003510   0.003893  -0.000952   0.005123  -0.000139  -0.000065
    30  H    0.000575   0.000093   0.001535  -0.000070   0.000001  -0.000003
    31  H    0.000031  -0.000089   0.000002  -0.000057   0.000003   0.000003
             25         26         27         28         29         30
     1  C    0.000000   0.000000   0.000000   0.000000   0.000000   0.000000
     2  C    0.000000   0.000001   0.000000   0.000000   0.000001   0.000000
     3  C   -0.000008  -0.000138   0.000000   0.000004  -0.000010   0.000000
     4  C    0.000063   0.005201  -0.000088  -0.000152   0.005009  -0.000059
     5  C   -0.000001   0.000058   0.000007  -0.000001  -0.000147   0.000000
     6  C   -0.000002  -0.000003   0.000000   0.000000   0.000003   0.000000
     7  H    0.000000   0.000000   0.000000   0.000000   0.000000   0.000000
     8  H    0.000001  -0.000007   0.000000   0.000003   0.000002   0.000000
     9  H    0.000026  -0.000114   0.000003   0.000003  -0.000059   0.000000
    10  H    0.000000   0.000000   0.000000   0.000000   0.000000   0.000000
    11  C    0.000000   0.000000   0.000000   0.000000   0.000000   0.000000
    12  N    0.000000   0.000000   0.000000   0.000000   0.000000   0.000000
    13  N    0.002834  -0.065601   0.002637   0.001422  -0.051857   0.002304
    14  C   -0.037878   0.270102  -0.036783  -0.045752  -0.090236   0.004233
    15  H    0.002153  -0.047210  -0.001055   0.004353  -0.002200  -0.000120
    16  C   -0.000088  -0.090424   0.003998   0.000630   0.271999  -0.038801
    17  H    0.000003   0.004904  -0.000035   0.000021  -0.037848   0.001301
    18  C   -0.000001   0.000325  -0.000103   0.000771  -0.072793  -0.002376
    19  H    0.000002   0.001761  -0.000013   0.001814  -0.003510   0.000575
    20  H    0.000000  -0.000166   0.000001  -0.000046   0.003893   0.000093
    21  H    0.000000   0.000259   0.000003   0.000062  -0.000952   0.001535
    22  C    0.348463  -0.058182   0.000215  -0.004682   0.005123  -0.000070
    23  H   -0.028505   0.003827  -0.000080   0.000024  -0.000139   0.000001
    24  H   -0.023259  -0.004448   0.000011   0.005337  -0.000065  -0.000003
    25  H    0.551766  -0.002735   0.001528   0.000164  -0.000042  -0.000001
    26  C   -0.002735   5.425518   0.374177   0.369796   0.263784  -0.032241
    27  H    0.001528   0.374177   0.524031  -0.026246  -0.033225   0.000322
    28  H    0.000164   0.369796  -0.026246   0.530109  -0.043682  -0.004032
    29  C   -0.000042   0.263784  -0.033225  -0.043682   5.428702   0.379910
    30  H   -0.000001  -0.032241   0.000322  -0.004032   0.379910   0.514942
    31  H   -0.000002  -0.043619  -0.004064   0.003710   0.369532  -0.027937
             31
     1  C    0.000000
     2  C    0.000000
     3  C    0.000004
     4  C   -0.000170
     5  C    0.000008
     6  C    0.000000
     7  H    0.000000
     8  H    0.000000
     9  H    0.000019
    10  H    0.000000
    11  C    0.000000
    12  N    0.000000
    13  N    0.001183
    14  C    0.001083
    15  H    0.002043
    16  C   -0.039161
    17  H   -0.004411
    18  C    0.003565
    19  H    0.000031
    20  H   -0.000089
    21  H    0.000002
    22  C   -0.000057
    23  H    0.000003
    24  H    0.000003
    25  H   -0.000002
    26  C   -0.043619
    27  H   -0.004064
    28  H    0.003710
    29  C    0.369532
    30  H   -0.027937
    31  H    0.538169
 Mulliken atomic charges:
              1
     1  C   -0.000262
     2  C   -0.164927
     3  C   -0.163872
     4  C    0.262841
     5  C   -0.177396
     6  C   -0.163492
     7  H    0.205227
     8  H    0.206166
     9  H    0.198833
    10  H    0.204950
    11  C    0.286414
    12  N   -0.476427
    13  N   -0.636412
    14  C   -0.033817
    15  H    0.180656
    16  C   -0.050459
    17  H    0.196935
    18  C   -0.529027
    19  H    0.195244
    20  H    0.195042
    21  H    0.180091
    22  C   -0.539515
    23  H    0.202281
    24  H    0.199716
    25  H    0.185518
    26  C   -0.374826
    27  H    0.194759
    28  H    0.206371
    29  C   -0.391192
    30  H    0.200423
    31  H    0.200157
 Sum of Mulliken atomic charges =   0.00000
 Mulliken charges with hydrogens summed into heavy atoms:
              1
     1  C   -0.000262
     2  C    0.040299
     3  C    0.042294
     4  C    0.262841
     5  C    0.021438
     6  C    0.041458
    11  C    0.286414
    12  N   -0.476427
    13  N   -0.636412
    14  C    0.146839
    16  C    0.146476
    18  C    0.041349
    22  C    0.047999
    26  C    0.026305
    29  C    0.009388
 Sum of Mulliken charges with hydrogens summed into heavy atoms =   0.00000
 Electronic spatial extent (au):  <R**2>=           3848.3902
 Charge=              0.0000 electrons
 Dipole moment (field-independent basis, Debye):
    X=             -5.5132    Y=             -0.1838    Z=             -0.4803  Tot=              5.5371
 Quadrupole moment (field-independent basis, Debye-Ang):
   XX=           -116.4003   YY=            -86.2166   ZZ=            -87.9897
   XY=              0.5674   XZ=              2.4190   YZ=              3.9365
 Traceless Quadrupole moment (field-independent basis, Debye-Ang):
   XX=            -19.5315   YY=             10.6523   ZZ=              8.8792
   XY=              0.5674   XZ=              2.4190   YZ=              3.9365
 Octapole moment (field-independent basis, Debye-Ang**2):
  XXX=           -231.0593  YYY=             -1.3375  ZZZ=             -0.6339  XYY=             -2.8083
  XXY=             -0.3927  XXZ=              5.3414  XZZ=             -0.5380  YZZ=             -0.0272
  YYZ=             -0.4833  XYZ=              9.0556
 Hexadecapole moment (field-independent basis, Debye-Ang**3):
 XXXX=          -5329.6526 YYYY=           -832.6917 ZZZZ=           -396.4194 XXXY=              0.5677
 XXXZ=             51.9406 YYYX=              5.8385 YYYZ=              9.0395 ZZZX=             -1.5342
 ZZZY=             13.5041 XXYY=           -781.8673 XXZZ=           -720.8455 YYZZ=           -196.1205
 XXYZ=             22.1019 YYXZ=              4.7734 ZZXY=             -0.2546
 N-N= 9.506588468641D+02 E-N=-3.317271744894D+03  KE= 6.066709913656D+02
 1|1|UNPC-DESKTOP-K2VF0AK|SP|RTD-B3LYP-FC|3-21G|C13H16N2|MELIH|17-Dec-2
 024|0||# td b3lyp/3-21g geom=connectivity||Title Card Required||0,1|C,
 0,2.945271,0.018526,-0.05867|C,0,2.269625,1.0795,0.528225|C,0,0.889826
 ,1.069202,0.586613|C,0,0.163432,0.009987,0.063836|C,0,0.849552,-1.0482
 6,-0.522335|C,0,2.227116,-1.048969,-0.584769|H,0,2.823677,1.901365,0.9
 34192|H,0,0.355513,1.87794,1.038784|H,0,0.300361,-1.872564,-0.930805|H
 ,0,2.75008,-1.866954,-1.037378|C,0,4.372239,0.022238,-0.121963|N,0,5.5
 11702,0.024904,-0.172626|N,0,-1.258289,0.035127,0.135401|C,0,-1.973283
 02,-1.22866005,0.43159752|H,0,-1.66959984,-2.02173105,-0.25024002|C,0,
 -1.99005989,0.85641137,-0.87267061|H,0,-1.41485266,0.92916397,-1.78889
 463|C,0,-2.24135298,2.25794322,-0.31186739|H,0,-2.83787248,2.18872289,
 0.58950483|H,0,-1.30248169,2.73933326,-0.06373668|H,0,-2.76218095,2.87
 480699,-1.03671507|C,0,-1.73729005,-1.67064545,1.87528475|H,0,-0.69229
 984,-1.90115931,2.04552813|H,0,-2.02803475,-0.87104365,2.54516519|H,0,
 -2.32185041,-2.55608004,2.10106431|C,0,-3.42754071,-0.83137012,0.13687
 495|H,0,-4.06346646,-1.69202121,-0.02315191|H,0,-3.81242856,-0.2560578
 8,0.97005309|C,0,-3.29901191,0.06056243,-1.11386558|H,0,-4.14909569,0.
 71468526,-1.25309141|H,0,-3.1970439,-0.56419847,-1.99391494||Version=I
 A32W-G09RevA.02|State=1-A|HF=-611.1491214|RMSD=3.776e-009|PG=C01 [X(C1
 3H16N2)]||@


 THE VALUE OF PHILOSOPHY IS, IN FACT, TO BE SOUGHT LARGELY IN ITS
 VERY UNCERTAINTY.  THE MAN WHO HAS NO TINCTURE OF PHILOSOPHY GOES
 THROUGH LIFE IMPRISONED IN THE PREJUDICES DERIVED FROM COMMON SENSE,
 FROM THE HABITUAL BELIEFS OF HIS AGE OR HIS NATION, AND FROM
 CONVICTIONS WHICH HAVE GROWN UP IN HIS MIND WITHOUT THE CO-OPERATION
 OR CONSENT OF HIS DELIBERATE REASON.  TO SUCH A MAN THE WORLD TENDS
 TO BE DEFINITE, FINITE, OBVIOUS; COMMON OBJECTS ROUSE NO QUESTIONS,
 AND UNFAMILIAR POSSIBILITIES ARE CONTEMPTUOUSLY REJECTED.

                             -- BERTRAND RUSSELL
 Job cpu time:  0 days  0 hours  5 minutes 30.0 seconds.
 File lengths (MBytes):  RWF=     64 Int=      0 D2E=      0 Chk=      5 Scr=      1
 Normal termination of Gaussian 09 at Tue Dec 17 23:08:18 2024.
