 Entering Link 1 = C:\G09W\l1.exe PID=     20596.
  
 Copyright (c) 1988,1990,1992,1993,1995,1998,2003,2009, Gaussian, Inc.
                  All Rights Reserved.
  
 This is part of the Gaussian(R) 09 program.  It is based on
 the Gaussian(R) 03 system (copyright 2003, Gaussian, Inc.),
 the Gaussian(R) 98 system (copyright 1998, Gaussian, Inc.),
 the Gaussian(R) 94 system (copyright 1995, Gaussian, Inc.),
 the Gaussian 92(TM) system (copyright 1992, Gaussian, Inc.),
 the Gaussian 90(TM) system (copyright 1990, Gaussian, Inc.),
 the Gaussian 88(TM) system (copyright 1988, Gaussian, Inc.),
 the Gaussian 86(TM) system (copyright 1986, Carnegie Mellon
 University), and the Gaussian 82(TM) system (copyright 1983,
 Carnegie Mellon University). Gaussian is a federally registered
 trademark of Gaussian, Inc.
  
 This software contains proprietary and confidential information,
 including trade secrets, belonging to Gaussian, Inc.
  
 This software is provided under written license and may be
 used, copied, transmitted, or stored only in accord with that
 written license.
  
 The following legend is applicable only to US Government
 contracts under FAR:
  
                    RESTRICTED RIGHTS LEGEND
  
 Use, reproduction and disclosure by the US Government is
 subject to restrictions as set forth in subparagraphs (a)
 and (c) of the Commercial Computer Software - Restricted
 Rights clause in FAR 52.227-19.
  
 Gaussian, Inc.
 340 Quinnipiac St., Bldg. 40, Wallingford CT 06492
  
  
 ---------------------------------------------------------------
 Warning -- This program may not be used in any manner that
 competes with the business of Gaussian, Inc. or will provide
 assistance to any competitor of Gaussian, Inc.  The licensee
 of this program is prohibited from giving any competitor of
 Gaussian, Inc. access to this program.  By using this program,
 the user acknowledges that Gaussian, Inc. is engaged in the
 business of creating and licensing software in the field of
 computational chemistry and represents and warrants to the
 licensee that it is not a competitor of Gaussian, Inc. and that
 it will not use this program in any manner prohibited above.
 ---------------------------------------------------------------
  

 Cite this work as:
 Gaussian 09, Revision A.02,
 M. J. Frisch, G. W. Trucks, H. B. Schlegel, G. E. Scuseria, 
 M. A. Robb, J. R. Cheeseman, G. Scalmani, V. Barone, B. Mennucci, 
 G. A. Petersson, H. Nakatsuji, M. Caricato, X. Li, H. P. Hratchian, 
 A. F. Izmaylov, J. Bloino, G. Zheng, J. L. Sonnenberg, M. Hada, 
 M. Ehara, K. Toyota, R. Fukuda, J. Hasegawa, M. Ishida, T. Nakajima, 
 Y. Honda, O. Kitao, H. Nakai, T. Vreven, J. A. Montgomery, Jr., 
 J. E. Peralta, F. Ogliaro, M. Bearpark, J. J. Heyd, E. Brothers, 
 K. N. Kudin, V. N. Staroverov, R. Kobayashi, J. Normand, 
 K. Raghavachari, A. Rendell, J. C. Burant, S. S. Iyengar, J. Tomasi, 
 M. Cossi, N. Rega, J. M. Millam, M. Klene, J. E. Knox, J. B. Cross, 
 V. Bakken, C. Adamo, J. Jaramillo, R. Gomperts, R. E. Stratmann, 
 O. Yazyev, A. J. Austin, R. Cammi, C. Pomelli, J. W. Ochterski, 
 R. L. Martin, K. Morokuma, V. G. Zakrzewski, G. A. Voth, 
 P. Salvador, J. J. Dannenberg, S. Dapprich, A. D. Daniels, 
 O. Farkas, J. B. Foresman, J. V. Ortiz, J. Cioslowski, 
 and D. J. Fox, Gaussian, Inc., Wallingford CT, 2009.
 
 ******************************************
 Gaussian 09:  IA32W-G09RevA.02 11-Jun-2009
                25-Dec-2024 
 ******************************************
 %chk=C:\G09W\Hw5\ENERGY260.chk
 ----------------------------------
 # td b3lyp/3-21g geom=connectivity
 ----------------------------------
 1/38=1,57=2/1;
 2/12=2,17=6,18=5,40=1/2;
 3/5=5,11=2,16=1,25=1,30=1,74=-5/1,2,8,3;
 4//1;
 5/5=2,38=5/2;
 8/6=1,10=1/1;
 9/42=1/14;
 6/7=2,8=2,9=2,10=2/1;
 99/5=1,9=1/99;
 -------------------
 Title Card Required
 -------------------
 Symbolic Z-matrix:
 Charge =  0 Multiplicity = 1
 C                    -2.94346  -0.03003  -0.05633 
 C                    -2.17848  -0.01508  -1.21443 
 C                    -0.80012  -0.00179  -1.12893 
 C                    -0.16362  -0.00172   0.10304 
 C                    -0.93886  -0.01655   1.25761 
 C                    -2.31579  -0.03133   1.18387 
 H                    -2.66279  -0.01495  -2.16978 
 H                    -0.19741   0.00634  -2.01248 
 H                    -0.4597   -0.01587   2.21591 
 H                    -2.90763  -0.04285   2.07663 
 C                    -4.36947  -0.04447  -0.13729 
 N                    -5.50819  -0.05603  -0.20161 
 N                     1.25905   0.01871   0.15431 
 C                     1.97278   1.15119  -0.48145 
 H                     1.65629   1.28549  -1.51484 
 C                     1.98016  -1.27081  -0.05391 
 H                     1.39255  -1.9348   -0.67797 
 C                     2.24513  -1.93771   1.29775 
 H                     2.85385  -1.28641   1.91287 
 H                     1.31184  -2.12324   1.81672 
 H                     2.7584   -2.88444   1.16573 
 C                     1.75506   2.44764   0.29771 
 H                     0.71158   2.73932   0.28352 
 H                     2.05847   2.30057   1.32677 
 H                     2.33898   3.25279  -0.13525 
 C                     3.42445   0.64976  -0.4534 
 H                     4.05446   1.17784  -1.15692 
 H                     3.82332   0.77803   0.54548 
 C                     3.28226  -0.84939  -0.78318 
 H                     4.13307  -1.43369  -0.45972 
 H                     3.16542  -0.97407  -1.8537 
 
                          Input orientation:                          
 ---------------------------------------------------------------------
 Center     Atomic      Atomic             Coordinates (Angstroms)
 Number     Number       Type             X           Y           Z
 ---------------------------------------------------------------------
      1          6           0       -2.943462   -0.030029   -0.056333
      2          6           0       -2.178481   -0.015084   -1.214432
      3          6           0       -0.800122   -0.001791   -1.128927
      4          6           0       -0.163623   -0.001718    0.103043
      5          6           0       -0.938862   -0.016551    1.257611
      6          6           0       -2.315789   -0.031330    1.183865
      7          1           0       -2.662793   -0.014952   -2.169777
      8          1           0       -0.197407    0.006340   -2.012485
      9          1           0       -0.459695   -0.015867    2.215909
     10          1           0       -2.907631   -0.042847    2.076634
     11          6           0       -4.369469   -0.044468   -0.137288
     12          7           0       -5.508188   -0.056028   -0.201611
     13          7           0        1.259050    0.018712    0.154308
     14          6           0        1.972778    1.151194   -0.481448
     15          1           0        1.656294    1.285487   -1.514836
     16          6           0        1.980155   -1.270805   -0.053909
     17          1           0        1.392553   -1.934800   -0.677974
     18          6           0        2.245129   -1.937706    1.297747
     19          1           0        2.853848   -1.286413    1.912868
     20          1           0        1.311838   -2.123237    1.816717
     21          1           0        2.758400   -2.884443    1.165726
     22          6           0        1.755059    2.447644    0.297714
     23          1           0        0.711582    2.739323    0.283522
     24          1           0        2.058467    2.300573    1.326766
     25          1           0        2.338980    3.252790   -0.135252
     26          6           0        3.424447    0.649760   -0.453395
     27          1           0        4.054458    1.177835   -1.156924
     28          1           0        3.823320    0.778028    0.545483
     29          6           0        3.282262   -0.849387   -0.783178
     30          1           0        4.133068   -1.433686   -0.459719
     31          1           0        3.165420   -0.974072   -1.853696
 ---------------------------------------------------------------------
                    Distance matrix (angstroms):
                    1          2          3          4          5
     1  C    0.000000
     2  C    1.388025   0.000000
     3  C    2.396907   1.381072   0.000000
     4  C    2.784548   2.407399   1.386679   0.000000
     5  C    2.396884   2.765439   2.390612   1.390770   0.000000
     6  C    1.389988   2.402279   2.765344   2.408500   1.378981
     7  H    2.132053   1.071095   2.133796   3.378126   3.836526
     8  H    3.371746   2.135884   1.069582   2.115813   3.353178
     9  H    3.366360   3.836856   3.362144   2.133556   1.071418
    10  H    2.133307   3.370986   3.836522   3.380286   2.132497
    11  C    1.428376   2.441625   3.704781   4.212923   3.703456
    12  N    2.568968   3.480579   4.798827   5.353516   4.796835
    13  N    4.208070   3.700163   2.426376   1.423743   2.459540
    14  C    5.073995   4.373833   3.072064   2.497007   3.586865
    15  H    5.001557   4.060446   2.799998   2.754365   4.014548
    16  C    5.077552   4.496432   3.239753   2.496197   3.437135
    17  H    4.776570   4.089667   2.957652   2.601630   3.586316
    18  C    5.691594   5.438367   4.348570   3.313224   3.718903
    19  H    6.250205   6.059753   4.924862   3.745803   4.052969
    20  H    5.098766   5.080797   4.199729   3.100727   3.133109
    21  H    6.492483   6.186369   5.122323   4.240002   4.680063
    22  C    5.323562   4.881019   3.816279   3.117469   3.775032
    23  H    4.598278   4.264163   3.434234   2.883030   3.356733
    24  H    5.688933   5.456343   4.416202   3.425745   3.789172
    25  H    6.219913   5.679003   4.629649   4.112375   4.834553
    26  C    6.416388   5.693329   4.327568   3.688942   4.733917
    27  H    7.186176   6.346329   4.995923   4.557529   5.673604
    28  H    6.841380   6.304596   4.978753   4.086499   4.880252
    29  C    6.321336   5.540916   4.183757   3.657602   4.761966
    30  H    7.225666   6.512885   5.180205   4.563857   5.539130
    31  H    6.437404   5.466771   4.146823   3.982063   5.238531
                    6          7          8          9         10
     6  C    0.000000
     7  H    3.371587   0.000000
     8  H    3.834790   2.470490   0.000000
     9  H    2.123779   4.907941   4.236579   0.000000
    10  H    1.071189   4.253556   4.905979   2.452043   0.000000
    11  C    2.441970   2.654171   4.574389   4.563407   2.653003
    12  N    3.480167   3.460005   5.611376   5.597615   3.457379
    13  N    3.720480   4.558877   2.610826   2.684303   4.589157
    14  C    4.750099   5.069405   2.892139   3.815061   5.638077
    15  H    4.979402   4.557916   2.306530   4.482119   5.957562
    16  C    4.639345   5.254620   3.195137   3.560873   5.471521
    17  H    4.565243   4.728332   2.841992   3.935440   5.446002
    18  C    4.944615   6.309390   4.550048   3.442755   5.545096
    19  H    5.369528   6.979823   5.137097   3.561698   5.896432
    20  H    4.235122   6.011214   4.634189   2.781851   4.711634
    21  H    5.821338   6.982041   5.214830   4.437088   6.403775
    22  C    4.847926   5.627638   3.887044   3.827988   5.577435
    23  H    4.201442   4.999111   3.683355   3.563296   4.904531
    24  H    4.959064   6.314884   4.637140   3.535196   5.542206
    25  H    5.847426   6.311510   4.527328   4.903535   6.578799
    26  C    6.007896   6.359426   3.995320   4.759706   6.853901
    27  H    6.893579   6.897106   4.492521   5.760079   7.772815
    28  H    6.225051   7.076095   4.827520   4.665277   6.951544
    29  C    5.989713   6.161381   3.788346   4.867394   6.866135
    30  H    6.801157   7.149883   4.820558   5.501152   7.611765
    31  H    6.337129   5.915056   3.506427   5.533652   7.293602
                   11         12         13         14         15
    11  C    0.000000
    12  N    1.140593   0.000000
    13  N    5.636421   6.777003   0.000000
    14  C    6.463137   7.582911   1.481927   0.000000
    15  H    6.322676   7.406350   2.132736   1.089076   0.000000
    16  C    6.467502   7.587672   1.492046   2.459456   2.962064
    17  H    6.088234   7.167770   2.127610   3.146211   3.337686
    18  C    7.028270   8.118048   2.471311   3.575054   4.318139
    19  H    7.610642   8.712549   2.709108   3.528592   4.449490
    20  H    6.357410   7.406737   2.711888   4.054664   4.778838
    21  H    7.782661   8.843416   3.420428   4.429080   5.078225
    22  C    6.626438   7.698860   2.483204   1.528162   2.155389
    23  H    5.808928   6.836291   2.778154   2.167475   2.498042
    24  H    6.997216   8.071169   2.687120   2.144307   3.044149
    25  H    7.474971   8.516497   3.421893   2.161171   2.497918
    26  C    7.831156   8.964011   2.335909   1.536088   2.158048
    27  H    8.572994   9.689130   3.298060   2.188691   2.427114
    28  H    8.262231   9.398448   2.702787   2.149034   3.032891
    29  C    7.721014   8.845318   2.392877   2.410003   2.781507
    30  H    8.621312   9.742606   3.278181   3.368817   3.826432
    31  H    7.783622   8.877142   2.941419   2.796822   2.738228
                   16         17         18         19         20
    16  C    0.000000
    17  H    1.084261   0.000000
    18  C    1.530341   2.151829   0.000000
    19  H    2.152161   3.044380   1.083095   0.000000
    20  H    2.161603   2.503099   1.083874   1.757075   0.000000
    21  H    2.167257   2.483262   1.084983   1.766644   1.759479
    22  C    3.741814   4.504353   4.524547   4.214171   4.837021
    23  H    4.219510   4.820334   5.025437   4.842584   5.133759
    24  H    3.829770   4.732949   4.242487   3.720566   4.513048
    25  H    4.538533   5.301072   5.385494   5.006421   5.810927
    26  C    2.436009   3.295297   3.339501   3.110233   4.160053
    27  H    3.393407   4.123546   4.359550   4.115532   5.221262
    28  H    2.820327   3.842514   3.229830   2.659236   4.042390
    29  C    1.550777   2.181786   2.567164   2.764633   3.502102
    30  H    2.196872   2.794490   2.628124   2.699493   3.690119
    31  H    2.175348   2.334176   3.421567   3.792313   4.269459
                   21         22         23         24         25
    21  H    0.000000
    22  C    5.494660   0.000000
    23  H    6.049338   1.083569   0.000000
    24  H    5.234523   1.082882   1.759250   0.000000
    25  H    6.287614   1.084750   1.757112   1.767173   0.000000
    26  C    3.944079   2.565815   3.502707   2.785688   2.838172
    27  H    4.855571   3.002603   3.960802   3.378348   2.879604
    28  H    3.864253   2.669590   3.687576   2.458303   2.964981
    29  C    2.866027   3.790922   4.541485   3.983941   4.258808
    30  H    2.576137   4.614472   5.447291   4.630355   5.028627
    31  H    3.596122   4.280867   4.937441   4.697231   4.637070
                   26         27         28         29         30
    26  C    0.000000
    27  H    1.082003   0.000000
    28  H    1.083194   1.763933   0.000000
    29  C    1.541563   2.201273   2.169462   0.000000
    30  H    2.200666   2.704129   2.449092   1.081620   0.000000
    31  H    2.159807   2.430346   3.042819   1.084070   1.758056
                   31
    31  H    0.000000
 Stoichiometry    C13H16N2
 Framework group  C1[X(C13H16N2)]
 Deg. of freedom    87
 Full point group                 C1      NOp   1
 Largest Abelian subgroup         C1      NOp   1
 Largest concise Abelian subgroup C1      NOp   1
                         Standard orientation:                         
 ---------------------------------------------------------------------
 Center     Atomic      Atomic             Coordinates (Angstroms)
 Number     Number       Type             X           Y           Z
 ---------------------------------------------------------------------
      1          6           0        2.943195    0.026515   -0.069242
      2          6           0        2.178180   -0.369617   -1.157564
      3          6           0        0.799879   -0.358399   -1.070840
      4          6           0        0.163476    0.043438    0.093805
      5          6           0        0.938749    0.438340    1.178815
      6          6           0        2.315615    0.432375    1.102716
      7          1           0        2.662418   -0.681434   -2.060629
      8          1           0        0.197128   -0.657593   -1.902213
      9          1           0        0.459660    0.750368    2.084932
     10          1           0        2.907482    0.737754    1.941693
     11          6           0        4.369140    0.018018   -0.152098
     12          7           0        5.507810    0.011366   -0.217967
     13          7           0       -1.259118    0.036553    0.150572
     14          6           0       -1.969161   -1.243960   -0.077977
     15          1           0       -1.652315   -1.708624   -1.010599
     16          6           0       -1.984480    1.184319   -0.468042
     17          1           0       -1.399115    1.608847   -1.275969
     18          6           0       -2.251547    2.256651    0.590599
     19          1           0       -2.858072    1.841126    1.385936
     20          1           0       -1.318833    2.604940    1.018995
     21          1           0       -2.767942    3.106202    0.156102
     22          6           0       -1.747116   -2.212659    1.082882
     23          1           0       -0.702685   -2.489650    1.163893
     24          1           0       -2.050929   -1.737304    2.007203
     25          1           0       -2.328416   -3.117046    0.938459
     26          6           0       -3.422471   -0.765521   -0.214186
     27          1           0       -4.050793   -1.496990   -0.704997
     28          1           0       -3.820844   -0.560475    0.772001
     29          6           0       -3.285248    0.543101   -1.017362
     30          1           0       -4.137949    1.198520   -0.902346
     31          1           0       -3.168898    0.310313   -2.069731
 ---------------------------------------------------------------------
 Rotational constants (GHZ):      1.4230017      0.3126745      0.2955605
 Standard basis: 3-21G (6D, 7F)
 There are   167 symmetry adapted basis functions of A   symmetry.
 Integral buffers will be    262144 words long.
 Raffenetti 2 integral format.
 Two-electron integral symmetry is turned on.
   167 basis functions,   273 primitive gaussians,   167 cartesian basis functions
    54 alpha electrons       54 beta electrons
       nuclear repulsion energy       950.0782823940 Hartrees.
 NAtoms=   31 NActive=   31 NUniq=   31 SFac= 7.50D-01 NAtFMM=   80 NAOKFM=F Big=F
 One-electron integrals computed using PRISM.
 NBasis=   167 RedAO= T  NBF=   167
 NBsUse=   167 1.00D-06 NBFU=   167
 Harris functional with IExCor=  402 diagonalized for initial guess.
 ExpMin= 1.83D-01 ExpMax= 2.43D+02 ExpMxC= 2.43D+02 IAcc=1 IRadAn=         1 AccDes= 0.00D+00
 HarFok:  IExCor=  402 AccDes= 0.00D+00 IRadAn=         1 IDoV= 1
 ScaDFX=  1.000000  1.000000  1.000000  1.000000
 FoFCou: FMM=F IPFlag=           0 FMFlag=      100000 FMFlg1=           0
         NFxFlg=           0 DoJE=T BraDBF=F KetDBF=T FulRan=T
         Omega=  0.000000  0.000000  1.000000  0.000000  0.000000 ICntrl=     500 IOpCl=  0
         NMat0=    1 NMatS0=    1 NMatT0=    0 NMatD0=    1 NMtDS0=    0 NMtDT0=    0
         I1Cent=           4 NGrid=           0.
 Petite list used in FoFCou.
 Initial guess orbital symmetries:
       Occupied  (A) (A) (A) (A) (A) (A) (A) (A) (A) (A) (A) (A)
                 (A) (A) (A) (A) (A) (A) (A) (A) (A) (A) (A) (A)
                 (A) (A) (A) (A) (A) (A) (A) (A) (A) (A) (A) (A)
                 (A) (A) (A) (A) (A) (A) (A) (A) (A) (A) (A) (A)
                 (A) (A) (A) (A) (A) (A)
       Virtual   (A) (A) (A) (A) (A) (A) (A) (A) (A) (A) (A) (A)
                 (A) (A) (A) (A) (A) (A) (A) (A) (A) (A) (A) (A)
                 (A) (A) (A) (A) (A) (A) (A) (A) (A) (A) (A) (A)
                 (A) (A) (A) (A) (A) (A) (A) (A) (A) (A) (A) (A)
                 (A) (A) (A) (A) (A) (A) (A) (A) (A) (A) (A) (A)
                 (A) (A) (A) (A) (A) (A) (A) (A) (A) (A) (A) (A)
                 (A) (A) (A) (A) (A) (A) (A) (A) (A) (A) (A) (A)
                 (A) (A) (A) (A) (A) (A) (A) (A) (A) (A) (A) (A)
                 (A) (A) (A) (A) (A) (A) (A) (A) (A) (A) (A) (A)
                 (A) (A) (A) (A) (A)
 The electronic state of the initial guess is 1-A.
 Requested convergence on RMS density matrix=1.00D-08 within 128 cycles.
 Requested convergence on MAX density matrix=1.00D-06.
 Requested convergence on             energy=1.00D-06.
 No special actions if energy rises.
 Integral accuracy reduced to 1.0D-05 until final iterations.
 Initial convergence to 1.0D-05 achieved.  Increase integral accuracy.
 SCF Done:  E(RB3LYP) =  -611.147270532     A.U. after   15 cycles
             Convg  =    0.9916D-08             -V/T =  2.0074
 ExpMin= 1.83D-01 ExpMax= 2.43D+02 ExpMxC= 2.43D+02 IAcc=1 IRadAn=         1 AccDes= 0.00D+00
 HarFok:  IExCor=  205 AccDes= 0.00D+00 IRadAn=         1 IDoV=-2
 ScaDFX=  1.000000  1.000000  1.000000  1.000000
 Range of M.O.s used for correlation:    16   167
 NBasis=   167 NAE=    54 NBE=    54 NFC=    15 NFV=     0
 NROrb=    152 NOA=    39 NOB=    39 NVA=   113 NVB=   113
 Would need an additional   268100000 words for in-memory AO integral storage.
 Orbital symmetries:
       Occupied  (A) (A) (A) (A) (A) (A) (A) (A) (A) (A) (A) (A)
                 (A) (A) (A) (A) (A) (A) (A) (A) (A) (A) (A) (A)
                 (A) (A) (A) (A) (A) (A) (A) (A) (A) (A) (A) (A)
                 (A) (A) (A) (A) (A) (A) (A) (A) (A) (A) (A) (A)
                 (A) (A) (A) (A) (A) (A)
       Virtual   (A) (A) (A) (A) (A) (A) (A) (A) (A) (A) (A) (A)
                 (A) (A) (A) (A) (A) (A) (A) (A) (A) (A) (A) (A)
                 (A) (A) (A) (A) (A) (A) (A) (A) (A) (A) (A) (A)
                 (A) (A) (A) (A) (A) (A) (A) (A) (A) (A) (A) (A)
                 (A) (A) (A) (A) (A) (A) (A) (A) (A) (A) (A) (A)
                 (A) (A) (A) (A) (A) (A) (A) (A) (A) (A) (A) (A)
                 (A) (A) (A) (A) (A) (A) (A) (A) (A) (A) (A) (A)
                 (A) (A) (A) (A) (A) (A) (A) (A) (A) (A) (A) (A)
                 (A) (A) (A) (A) (A) (A) (A) (A) (A) (A) (A) (A)
                 (A) (A) (A) (A) (A)
    12 initial guesses have been made.
 Convergence on wavefunction:    0.001000000000000
 Iteration     1 Dimension    12 NMult    12
 CISAX will form    12 AO SS matrices at one time.
 No map to state      3
 Iteration     2 Dimension    18 NMult    18
 Iteration     3 Dimension    24 NMult    24
 Iteration     4 Dimension    30 NMult    30
 Iteration     5 Dimension    34 NMult    34
 Iteration     6 Dimension    36 NMult    36
 ***********************************************************************
 Excited states from <AA,BB:AA,BB> singles matrix:
 ***********************************************************************
 
 Ground to excited state transition electric dipole moments (Au):
       state          X           Y           Z        Dip. S.      Osc.
         1         0.4519     -0.0060     -0.0016      0.2042      0.0179
         2        -0.0240     -0.0088     -0.0834      0.0076      0.0008
         3        -0.0578     -0.0538     -0.1391      0.0256      0.0034
 Ground to excited state transition velocity dipole moments (Au):
       state          X           Y           Z        Dip. S.      Osc.
         1        -0.0485      0.0023     -0.0019      0.0024      0.0120
         2         0.0032      0.0001      0.0147      0.0002      0.0010
         3         0.0104      0.0087      0.0223      0.0007      0.0023
 Ground to excited state transition magnetic dipole moments (Au):
       state          X           Y           Z
         1         0.2721     -0.0168      0.0932
         2         0.0749     -0.1372      0.2355
         3         0.0170      0.0162      0.0199
 <0|del|b> * <b|rxdel|0> + <0|del|b> * <b|delr+rdel|0>
 Rotatory Strengths (R) in cgs (10**-40 erg-esu-cm/Gauss)
       state          XX          YY          ZZ    R(velocity)
         1        -0.6232    -35.7928    -35.8020    -24.0727
 Total R(velocity) tensor for State=          1
                 1             2             3 
      1  -0.623161D+00 -0.615409D+01  0.841857D+01
      2  -0.198416D+01 -0.357928D+02  0.648883D+01
      3   0.137236D+01 -0.210197D+00 -0.358020D+02
 R(velocity) tensor in inp. orien. for State=          1
                 1             2             3 
      1  -0.659943D+00 -0.869584D+01 -0.595751D+01
      2  -0.244693D+01 -0.377021D+02 -0.579715D+01
      3  -0.645656D+00  0.884895D+00 -0.338560D+02
         2         6.8917      9.3957      0.3154      5.5342
 Total R(velocity) tensor for State=          2
                 1             2             3 
      1   0.689165D+01  0.751012D+00 -0.150502D+01
      2   0.308409D+00  0.939568D+01 -0.130197D+00
      3  -0.157190D+01  0.397982D+01  0.315410D+00
 R(velocity) tensor in inp. orien. for State=          2
                 1             2             3 
      1   0.689847D+01  0.120350D+01  0.116784D+01
      2   0.807587D+00  0.722096D+01 -0.227225D+01
      3   0.136259D+01 -0.638295D+01  0.248333D+01
         3         0.6217      0.0407      2.0440      0.9021
 Total R(velocity) tensor for State=          3
                 1             2             3 
      1   0.621699D+00 -0.111915D+01  0.145845D+00
      2  -0.574231D+00  0.406556D-01  0.250839D+00
      3  -0.335696D+00 -0.486319D+01  0.204399D+01
 R(velocity) tensor in inp. orien. for State=          3
                 1             2             3 
      1   0.616704D+00 -0.110123D+01  0.228667D+00
      2  -0.428943D+00  0.168949D+01 -0.126795D+00
      3   0.521796D+00  0.498635D+01  0.400154D+00
 1/2[<0|r|b>*<b|rxdel|0> + (<0|rxdel|b>*<b|r|0>)*]
 Rotatory Strengths (R) in cgs (10**-40 erg-esu-cm/Gauss)
       state          XX          YY          ZZ     R(length)     R(au)
         1       -86.9431     -0.0711      0.1055    -28.9696     -0.0614
         2         1.2710     -0.8488     13.8869      4.7697      0.0101
         3         0.6963      0.6149      1.9591      1.0901      0.0023
  1/2[<0|del|b>*<b|r|0> + (<0|r|b>*<b|del|0>)*] (Au)
       state          X           Y           Z        Dip. S.   Osc.(frdel)
         1        -0.0219      0.0000      0.0000      0.0219      0.0146
         2        -0.0001      0.0000     -0.0012      0.0013      0.0009
         3        -0.0006     -0.0005     -0.0031      0.0042      0.0028
 Ground to excited state transition densities written to RWF  633

 Excitation energies and oscillator strengths:
 
 Excited State   1:      Singlet-A      3.5725 eV  347.05 nm  f=0.0179  <S**2>=0.000
      54 -> 55         0.70212
 This state for optimization and/or second-order correction.
 Copying the excited state density for this state as the 1-particle RhoCI density.
 
 Excited State   2:      Singlet-A      4.2781 eV  289.81 nm  f=0.0008  <S**2>=0.000
      54 -> 56         0.70539
 
 Excited State   3:      Singlet-A      5.4095 eV  229.20 nm  f=0.0034  <S**2>=0.000
      52 -> 55         0.53387
      53 -> 56         0.46027
 SavETr:  write IOETrn=   770 NScale= 10 NData=  16 NLR=1 LETran=      62.

 **********************************************************************

            Population analysis using the SCF density.

 **********************************************************************

 Orbital symmetries:
       Occupied  (A) (A) (A) (A) (A) (A) (A) (A) (A) (A) (A) (A)
                 (A) (A) (A) (A) (A) (A) (A) (A) (A) (A) (A) (A)
                 (A) (A) (A) (A) (A) (A) (A) (A) (A) (A) (A) (A)
                 (A) (A) (A) (A) (A) (A) (A) (A) (A) (A) (A) (A)
                 (A) (A) (A) (A) (A) (A)
       Virtual   (A) (A) (A) (A) (A) (A) (A) (A) (A) (A) (A) (A)
                 (A) (A) (A) (A) (A) (A) (A) (A) (A) (A) (A) (A)
                 (A) (A) (A) (A) (A) (A) (A) (A) (A) (A) (A) (A)
                 (A) (A) (A) (A) (A) (A) (A) (A) (A) (A) (A) (A)
                 (A) (A) (A) (A) (A) (A) (A) (A) (A) (A) (A) (A)
                 (A) (A) (A) (A) (A) (A) (A) (A) (A) (A) (A) (A)
                 (A) (A) (A) (A) (A) (A) (A) (A) (A) (A) (A) (A)
                 (A) (A) (A) (A) (A) (A) (A) (A) (A) (A) (A) (A)
                 (A) (A) (A) (A) (A) (A) (A) (A) (A) (A) (A) (A)
                 (A) (A) (A) (A) (A)
 The electronic state is 1-A.
 Alpha  occ. eigenvalues --  -14.24704 -14.24368 -10.17469 -10.17341 -10.15722
 Alpha  occ. eigenvalues --  -10.15714 -10.15691 -10.15039 -10.14953 -10.14008
 Alpha  occ. eigenvalues --  -10.13914 -10.12288 -10.12124 -10.10681 -10.10427
 Alpha  occ. eigenvalues --   -0.94837  -0.93433  -0.88580  -0.81132  -0.78155
 Alpha  occ. eigenvalues --   -0.77553  -0.75554  -0.71370  -0.65144  -0.64907
 Alpha  occ. eigenvalues --   -0.63975  -0.58442  -0.57615  -0.57006  -0.52846
 Alpha  occ. eigenvalues --   -0.49827  -0.48188  -0.46703  -0.45472  -0.45058
 Alpha  occ. eigenvalues --   -0.43564  -0.43293  -0.41228  -0.41109  -0.40074
 Alpha  occ. eigenvalues --   -0.38868  -0.38068  -0.37185  -0.37108  -0.36381
 Alpha  occ. eigenvalues --   -0.34386  -0.34292  -0.33812  -0.33532  -0.33192
 Alpha  occ. eigenvalues --   -0.33047  -0.27579  -0.26168  -0.20531
 Alpha virt. eigenvalues --   -0.03971  -0.01442   0.05443   0.08902   0.09881
 Alpha virt. eigenvalues --    0.10716   0.12133   0.13740   0.14413   0.14774
 Alpha virt. eigenvalues --    0.16454   0.16733   0.17246   0.18473   0.18892
 Alpha virt. eigenvalues --    0.18982   0.20044   0.20612   0.21359   0.21719
 Alpha virt. eigenvalues --    0.22345   0.22828   0.23252   0.24486   0.24959
 Alpha virt. eigenvalues --    0.26241   0.27873   0.29435   0.31165   0.33264
 Alpha virt. eigenvalues --    0.33984   0.35836   0.38145   0.39412   0.50438
 Alpha virt. eigenvalues --    0.54032   0.59622   0.64332   0.66035   0.66421
 Alpha virt. eigenvalues --    0.67835   0.69200   0.69909   0.70502   0.70738
 Alpha virt. eigenvalues --    0.72076   0.72934   0.74180   0.74700   0.75733
 Alpha virt. eigenvalues --    0.76211   0.76794   0.77385   0.78348   0.78623
 Alpha virt. eigenvalues --    0.80170   0.81391   0.83713   0.84211   0.87005
 Alpha virt. eigenvalues --    0.90897   0.92130   0.92599   0.93681   0.94541
 Alpha virt. eigenvalues --    0.95714   0.96037   0.99548   1.00333   1.00601
 Alpha virt. eigenvalues --    1.00966   1.04211   1.05572   1.06192   1.07963
 Alpha virt. eigenvalues --    1.08462   1.09131   1.10129   1.11909   1.12684
 Alpha virt. eigenvalues --    1.13830   1.14864   1.16127   1.17377   1.18524
 Alpha virt. eigenvalues --    1.19623   1.20911   1.24913   1.27994   1.28619
 Alpha virt. eigenvalues --    1.33368   1.35433   1.39930   1.41144   1.49566
 Alpha virt. eigenvalues --    1.51195   1.52702   1.54069   1.58667   1.61205
 Alpha virt. eigenvalues --    1.74009   1.76408   1.78556   1.83597   1.92954
 Alpha virt. eigenvalues --    1.95526   1.98621   2.20079   2.38355   2.42741
 Alpha virt. eigenvalues --    2.50431   2.97328   2.99929
          Condensed to atoms (all electrons):
              1          2          3          4          5          6
     1  C    5.428792   0.447720  -0.083485  -0.030504  -0.084476   0.444310
     2  C    0.447720   5.185127   0.378396  -0.049253  -0.020725  -0.060881
     3  C   -0.083485   0.378396   5.358223   0.344767  -0.115996  -0.019433
     4  C   -0.030504  -0.049253   0.344767   5.005903   0.445640  -0.069556
     5  C   -0.084476  -0.020725  -0.115996   0.445640   5.235102   0.404844
     6  C    0.444310  -0.060881  -0.019433  -0.069556   0.404844   5.180374
     7  H   -0.043183   0.395218  -0.032137   0.003528  -0.000213   0.003763
     8  H    0.004445  -0.040928   0.396869  -0.050735   0.004078  -0.000150
     9  H    0.004775  -0.000501   0.005954  -0.041029   0.379615  -0.039514
    10  H   -0.043973   0.003831  -0.000292   0.004116  -0.032968   0.396497
    11  C    0.069572  -0.077609   0.004489  -0.000128   0.004114  -0.077376
    12  N   -0.117056  -0.000777  -0.000007   0.000000  -0.000006  -0.000786
    13  N   -0.000340   0.005546  -0.077748   0.321373  -0.062781   0.004182
    14  C    0.000004   0.000435  -0.003691  -0.071190   0.001066  -0.000133
    15  H    0.000003  -0.000543   0.003575  -0.004002  -0.000318   0.000021
    16  C    0.000014   0.000112  -0.002583  -0.071528   0.000261  -0.000085
    17  H   -0.000004  -0.000395   0.005625  -0.002960  -0.000516   0.000047
    18  C   -0.000001   0.000011  -0.000359  -0.000830   0.000539  -0.000005
    19  H    0.000000   0.000000   0.000010   0.000043  -0.000024   0.000002
    20  H   -0.000002  -0.000005   0.000055   0.001754   0.001589   0.000040
    21  H    0.000000   0.000000   0.000014   0.000034  -0.000037   0.000001
    22  C    0.000001   0.000000  -0.000922  -0.003157   0.000725   0.000024
    23  H   -0.000014   0.000007   0.000373   0.003753   0.000853  -0.000016
    24  H    0.000000  -0.000003   0.000073   0.000140  -0.000050   0.000012
    25  H    0.000000  -0.000002   0.000021   0.000103  -0.000019   0.000000
    26  C    0.000000  -0.000002  -0.000055   0.005354  -0.000106   0.000001
    27  H    0.000000   0.000000   0.000007  -0.000088   0.000000   0.000000
    28  H    0.000000   0.000000   0.000001  -0.000151   0.000003   0.000000
    29  C    0.000000   0.000004  -0.000143   0.005002  -0.000033   0.000001
    30  H    0.000000   0.000000   0.000000  -0.000061   0.000001   0.000000
    31  H    0.000000   0.000000   0.000021  -0.000197   0.000002   0.000000
              7          8          9         10         11         12
     1  C   -0.043183   0.004445   0.004775  -0.043973   0.069572  -0.117056
     2  C    0.395218  -0.040928  -0.000501   0.003831  -0.077609  -0.000777
     3  C   -0.032137   0.396869   0.005954  -0.000292   0.004489  -0.000007
     4  C    0.003528  -0.050735  -0.041029   0.004116  -0.000128   0.000000
     5  C   -0.000213   0.004078   0.379615  -0.032968   0.004114  -0.000006
     6  C    0.003763  -0.000150  -0.039514   0.396497  -0.077376  -0.000786
     7  H    0.477438  -0.003825   0.000003  -0.000051  -0.006187  -0.000106
     8  H   -0.003825   0.492664  -0.000042   0.000002  -0.000078   0.000000
     9  H    0.000003  -0.000042   0.490027  -0.004531  -0.000076   0.000000
    10  H   -0.000051   0.000002  -0.004531   0.476906  -0.006241  -0.000108
    11  C   -0.006187  -0.000078  -0.000076  -0.006241   4.954927   0.845323
    12  N   -0.000106   0.000000   0.000000  -0.000108   0.845323   6.746681
    13  N   -0.000024  -0.008920   0.000036  -0.000018   0.000000   0.000000
    14  C   -0.000002   0.001697  -0.000109   0.000001   0.000000   0.000000
    15  H    0.000006   0.005198   0.000029   0.000000   0.000000   0.000000
    16  C   -0.000001   0.000581  -0.000183   0.000001   0.000000   0.000000
    17  H    0.000003   0.000885   0.000104   0.000000   0.000000   0.000000
    18  C    0.000000  -0.000019   0.000048   0.000000   0.000000   0.000000
    19  H    0.000000   0.000001   0.000150   0.000000   0.000000   0.000000
    20  H    0.000000  -0.000001   0.001000  -0.000002   0.000000   0.000000
    21  H    0.000000   0.000001   0.000021   0.000000   0.000000   0.000000
    22  C    0.000000  -0.000188  -0.000085   0.000000   0.000000   0.000000
    23  H   -0.000001  -0.000018  -0.000022  -0.000001   0.000000   0.000000
    24  H    0.000000   0.000006   0.000227   0.000000   0.000000   0.000000
    25  H    0.000000   0.000007   0.000004   0.000000   0.000000   0.000000
    26  C    0.000000  -0.000158  -0.000007   0.000000   0.000000   0.000000
    27  H    0.000000   0.000003   0.000000   0.000000   0.000000   0.000000
    28  H    0.000000   0.000003   0.000004   0.000000   0.000000   0.000000
    29  C    0.000000  -0.000057  -0.000003   0.000000   0.000000   0.000000
    30  H    0.000000   0.000000   0.000000   0.000000   0.000000   0.000000
    31  H    0.000000   0.000154   0.000000   0.000000   0.000000   0.000000
             13         14         15         16         17         18
     1  C   -0.000340   0.000004   0.000003   0.000014  -0.000004  -0.000001
     2  C    0.005546   0.000435  -0.000543   0.000112  -0.000395   0.000011
     3  C   -0.077748  -0.003691   0.003575  -0.002583   0.005625  -0.000359
     4  C    0.321373  -0.071190  -0.004002  -0.071528  -0.002960  -0.000830
     5  C   -0.062781   0.001066  -0.000318   0.000261  -0.000516   0.000539
     6  C    0.004182  -0.000133   0.000021  -0.000085   0.000047  -0.000005
     7  H   -0.000024  -0.000002   0.000006  -0.000001   0.000003   0.000000
     8  H   -0.008920   0.001697   0.005198   0.000581   0.000885  -0.000019
     9  H    0.000036  -0.000109   0.000029  -0.000183   0.000104   0.000048
    10  H   -0.000018   0.000001   0.000000   0.000001   0.000000   0.000000
    11  C    0.000000   0.000000   0.000000   0.000000   0.000000   0.000000
    12  N    0.000000   0.000000   0.000000   0.000000   0.000000   0.000000
    13  N    7.233295   0.271491  -0.050734   0.269083  -0.041844  -0.066844
    14  C    0.271491   5.293495   0.348673  -0.083631   0.001267   0.005359
    15  H   -0.050734   0.348673   0.625389   0.000737   0.001041  -0.000275
    16  C    0.269083  -0.083631   0.000737   5.296854   0.370076   0.270034
    17  H   -0.041844   0.001267   0.001041   0.370076   0.571004  -0.063856
    18  C   -0.066844   0.005359  -0.000275   0.270034  -0.063856   5.391881
    19  H    0.002820   0.000165   0.000028  -0.042972   0.004156   0.362112
    20  H   -0.001356  -0.000004   0.000000  -0.037810  -0.001592   0.365060
    21  H    0.003179  -0.000142   0.000010  -0.036974   0.002587   0.332464
    22  C   -0.060115   0.280911  -0.064100   0.004622  -0.000149  -0.000069
    23  H   -0.002806  -0.038126  -0.002679   0.000006  -0.000003   0.000003
    24  H    0.004450  -0.041851   0.004833   0.000019   0.000009  -0.000055
    25  H    0.002833  -0.037450   0.002506  -0.000092   0.000003  -0.000001
    26  C   -0.065775   0.269937  -0.047890  -0.090135   0.004993   0.000315
    27  H    0.002639  -0.036682  -0.000874   0.003988  -0.000032  -0.000108
    28  H    0.001581  -0.045670   0.004396   0.000560   0.000025   0.000748
    29  C   -0.050950  -0.089433  -0.002348   0.272657  -0.037965  -0.074081
    30  H    0.002282   0.004245  -0.000124  -0.038866   0.001269  -0.002128
    31  H    0.001256   0.001044   0.001994  -0.039141  -0.004506   0.003585
             19         20         21         22         23         24
     1  C    0.000000  -0.000002   0.000000   0.000001  -0.000014   0.000000
     2  C    0.000000  -0.000005   0.000000   0.000000   0.000007  -0.000003
     3  C    0.000010   0.000055   0.000014  -0.000922   0.000373   0.000073
     4  C    0.000043   0.001754   0.000034  -0.003157   0.003753   0.000140
     5  C   -0.000024   0.001589  -0.000037   0.000725   0.000853  -0.000050
     6  C    0.000002   0.000040   0.000001   0.000024  -0.000016   0.000012
     7  H    0.000000   0.000000   0.000000   0.000000  -0.000001   0.000000
     8  H    0.000001  -0.000001   0.000001  -0.000188  -0.000018   0.000006
     9  H    0.000150   0.001000   0.000021  -0.000085  -0.000022   0.000227
    10  H    0.000000  -0.000002   0.000000   0.000000  -0.000001   0.000000
    11  C    0.000000   0.000000   0.000000   0.000000   0.000000   0.000000
    12  N    0.000000   0.000000   0.000000   0.000000   0.000000   0.000000
    13  N    0.002820  -0.001356   0.003179  -0.060115  -0.002806   0.004450
    14  C    0.000165  -0.000004  -0.000142   0.280911  -0.038126  -0.041851
    15  H    0.000028   0.000000   0.000010  -0.064100  -0.002679   0.004833
    16  C   -0.042972  -0.037810  -0.036974   0.004622   0.000006   0.000019
    17  H    0.004156  -0.001592   0.002587  -0.000149  -0.000003   0.000009
    18  C    0.362112   0.365060   0.332464  -0.000069   0.000003  -0.000055
    19  H    0.530491  -0.027114  -0.024081  -0.000105  -0.000001   0.000110
    20  H   -0.027114   0.528309  -0.026846  -0.000002   0.000000   0.000002
    21  H   -0.024081  -0.026846   0.571480  -0.000002   0.000000   0.000002
    22  C   -0.000105  -0.000002  -0.000002   5.368478   0.368254   0.355284
    23  H   -0.000001   0.000000   0.000000   0.368254   0.522323  -0.026913
    24  H    0.000110   0.000002   0.000002   0.355284  -0.026913   0.529006
    25  H    0.000002   0.000000   0.000000   0.346482  -0.028532  -0.022871
    26  C    0.001753  -0.000165   0.000264  -0.057448   0.003848  -0.004649
    27  H   -0.000012   0.000002   0.000003   0.000047  -0.000082   0.000035
    28  H    0.001831  -0.000043   0.000065  -0.004866   0.000028   0.005407
    29  C   -0.003486   0.003911  -0.000716   0.005146  -0.000142  -0.000069
    30  H    0.000569   0.000082   0.001452  -0.000068   0.000001  -0.000003
    31  H    0.000032  -0.000089   0.000001  -0.000057   0.000003   0.000002
             25         26         27         28         29         30
     1  C    0.000000   0.000000   0.000000   0.000000   0.000000   0.000000
     2  C   -0.000002  -0.000002   0.000000   0.000000   0.000004   0.000000
     3  C    0.000021  -0.000055   0.000007   0.000001  -0.000143   0.000000
     4  C    0.000103   0.005354  -0.000088  -0.000151   0.005002  -0.000061
     5  C   -0.000019  -0.000106   0.000000   0.000003  -0.000033   0.000001
     6  C    0.000000   0.000001   0.000000   0.000000   0.000001   0.000000
     7  H    0.000000   0.000000   0.000000   0.000000   0.000000   0.000000
     8  H    0.000007  -0.000158   0.000003   0.000003  -0.000057   0.000000
     9  H    0.000004  -0.000007   0.000000   0.000004  -0.000003   0.000000
    10  H    0.000000   0.000000   0.000000   0.000000   0.000000   0.000000
    11  C    0.000000   0.000000   0.000000   0.000000   0.000000   0.000000
    12  N    0.000000   0.000000   0.000000   0.000000   0.000000   0.000000
    13  N    0.002833  -0.065775   0.002639   0.001581  -0.050950   0.002282
    14  C   -0.037450   0.269937  -0.036682  -0.045670  -0.089433   0.004245
    15  H    0.002506  -0.047890  -0.000874   0.004396  -0.002348  -0.000124
    16  C   -0.000092  -0.090135   0.003988   0.000560   0.272657  -0.038866
    17  H    0.000003   0.004993  -0.000032   0.000025  -0.037965   0.001269
    18  C   -0.000001   0.000315  -0.000108   0.000748  -0.074081  -0.002128
    19  H    0.000002   0.001753  -0.000012   0.001831  -0.003486   0.000569
    20  H    0.000000  -0.000165   0.000002  -0.000043   0.003911   0.000082
    21  H    0.000000   0.000264   0.000003   0.000065  -0.000716   0.001452
    22  C    0.346482  -0.057448   0.000047  -0.004866   0.005146  -0.000068
    23  H   -0.028532   0.003848  -0.000082   0.000028  -0.000142   0.000001
    24  H   -0.022871  -0.004649   0.000035   0.005407  -0.000069  -0.000003
    25  H    0.553331  -0.002879   0.001579   0.000194  -0.000047  -0.000001
    26  C   -0.002879   5.426546   0.373333   0.369606   0.263972  -0.032496
    27  H    0.001579   0.373333   0.526846  -0.026306  -0.033582   0.000303
    28  H    0.000194   0.369606  -0.026306   0.531020  -0.043652  -0.004051
    29  C   -0.000047   0.263972  -0.033582  -0.043652   5.429803   0.380077
    30  H   -0.000001  -0.032496   0.000303  -0.004051   0.380077   0.516412
    31  H   -0.000002  -0.043855  -0.004085   0.003734   0.368914  -0.028029
             31
     1  C    0.000000
     2  C    0.000000
     3  C    0.000021
     4  C   -0.000197
     5  C    0.000002
     6  C    0.000000
     7  H    0.000000
     8  H    0.000154
     9  H    0.000000
    10  H    0.000000
    11  C    0.000000
    12  N    0.000000
    13  N    0.001256
    14  C    0.001044
    15  H    0.001994
    16  C   -0.039141
    17  H   -0.004506
    18  C    0.003585
    19  H    0.000032
    20  H   -0.000089
    21  H    0.000001
    22  C   -0.000057
    23  H    0.000003
    24  H    0.000002
    25  H   -0.000002
    26  C   -0.043855
    27  H   -0.004085
    28  H    0.003734
    29  C    0.368914
    30  H   -0.028029
    31  H    0.542204
 Mulliken atomic charges:
              1
     1  C    0.003400
     2  C   -0.164782
     3  C   -0.161621
     4  C    0.253858
     5  C   -0.160161
     6  C   -0.166184
     7  H    0.205770
     8  H    0.198525
     9  H    0.204105
    10  H    0.206831
    11  C    0.289270
    12  N   -0.473159
    13  N   -0.635788
    14  C   -0.031677
    15  H    0.175444
    16  C   -0.045604
    17  H    0.190727
    18  C   -0.523526
    19  H    0.193523
    20  H    0.193226
    21  H    0.177219
    22  C   -0.538640
    23  H    0.199902
    24  H    0.196847
    25  H    0.184830
    26  C   -0.374302
    27  H    0.193068
    28  H    0.205533
    29  C   -0.392782
    30  H    0.199135
    31  H    0.197013
 Sum of Mulliken atomic charges =   0.00000
 Mulliken charges with hydrogens summed into heavy atoms:
              1
     1  C    0.003400
     2  C    0.040989
     3  C    0.036905
     4  C    0.253858
     5  C    0.043944
     6  C    0.040648
    11  C    0.289270
    12  N   -0.473159
    13  N   -0.635788
    14  C    0.143767
    16  C    0.145122
    18  C    0.040441
    22  C    0.042939
    26  C    0.024298
    29  C    0.003366
 Sum of Mulliken charges with hydrogens summed into heavy atoms =   0.00000
 Electronic spatial extent (au):  <R**2>=           3845.3234
 Charge=              0.0000 electrons
 Dipole moment (field-independent basis, Debye):
    X=             -4.9545    Y=             -0.1370    Z=             -0.4058  Tot=              4.9730
 Quadrupole moment (field-independent basis, Debye-Ang):
   XX=           -115.9130   YY=            -89.9397   ZZ=            -84.4687
   XY=              0.5578   XZ=              3.0701   YZ=              2.5123
 Traceless Quadrupole moment (field-independent basis, Debye-Ang):
   XX=            -19.1392   YY=              6.8340   ZZ=             12.3051
   XY=              0.5578   XZ=              3.0701   YZ=              2.5123
 Octapole moment (field-independent basis, Debye-Ang**2):
  XXX=           -223.0987  YYY=             -1.6254  ZZZ=             -0.2196  XYY=             -8.4393
  XXY=             -0.2674  XXZ=              8.2129  XZZ=              6.6777  YZZ=              0.2604
  YYZ=             -0.5395  XYZ=              5.6418
 Hexadecapole moment (field-independent basis, Debye-Ang**3):
 XXXX=          -5299.1231 YYYY=           -761.9321 ZZZZ=           -449.6727 XXXY=              1.0491
 XXXZ=             66.5809 YYYX=              4.0960 YYYZ=             -2.1245 ZZZX=             -0.7359
 ZZZY=             16.7135 XXYY=           -786.9055 XXZZ=           -717.6200 YYZZ=           -207.7198
 XXYZ=             14.4659 YYXZ=              5.3170 ZZXY=              1.9020
 N-N= 9.500782823940D+02 E-N=-3.316180144530D+03  KE= 6.066713479040D+02
 1|1|UNPC-DESKTOP-K2VF0AK|SP|RTD-B3LYP-FC|3-21G|C13H16N2|MELIH|25-Dec-2
 024|0||# td b3lyp/3-21g geom=connectivity||Title Card Required||0,1|C,
 0,-2.94346211,-0.03002862,-0.0563329|C,0,-2.17848058,-0.01508412,-1.21
 443171|C,0,-0.80012178,-0.00179091,-1.12892669|C,0,-0.163623,-0.001718
 ,0.103043|C,0,-0.93886159,-0.01655134,1.25761072|C,0,-2.31578948,-0.03
 133006,1.18386519|H,0,-2.6627929,-0.01495164,-2.16977747|H,0,-0.197407
 48,0.00634024,-2.01248497|H,0,-0.45969543,-0.01586663,2.21590899|H,0,-
 2.90763095,-0.04284706,2.07663422|C,0,-4.36946866,-0.04446758,-0.13728
 82|N,0,-5.50818758,-0.05602814,-0.20161146|N,0,1.25905,0.018712,0.1543
 08|C,0,1.972778,1.151194,-0.481448|H,0,1.656294,1.285487,-1.514836|C,0
 ,1.980155,-1.270805,-0.053909|H,0,1.392553,-1.9348,-0.677974|C,0,2.245
 129,-1.937706,1.297747|H,0,2.853848,-1.286413,1.912868|H,0,1.311838,-2
 .123237,1.816717|H,0,2.7584,-2.884443,1.165726|C,0,1.755059,2.447644,0
 .297714|H,0,0.711582,2.739323,0.283522|H,0,2.058467,2.300573,1.326766|
 H,0,2.33898,3.25279,-0.135252|C,0,3.424447,0.64976,-0.453395|H,0,4.054
 458,1.177835,-1.156924|H,0,3.82332,0.778028,0.545483|C,0,3.282262,-0.8
 49387,-0.783178|H,0,4.133068,-1.433686,-0.459719|H,0,3.16542,-0.974072
 ,-1.853696||Version=IA32W-G09RevA.02|State=1-A|HF=-611.1472705|RMSD=9.
 916e-009|PG=C01 [X(C13H16N2)]||@


      SCIENCE SANS CONSCIENCE N'EST QUE RUINE DE L'AME.

                                                  -- RABELAIS
 Job cpu time:  0 days  0 hours  5 minutes 53.0 seconds.
 File lengths (MBytes):  RWF=     64 Int=      0 D2E=      0 Chk=      5 Scr=      1
 Normal termination of Gaussian 09 at Wed Dec 25 19:47:25 2024.
