 Entering Link 1 = C:\G09W\l1.exe PID=      1912.
  
 Copyright (c) 1988,1990,1992,1993,1995,1998,2003,2009, Gaussian, Inc.
                  All Rights Reserved.
  
 This is part of the Gaussian(R) 09 program.  It is based on
 the Gaussian(R) 03 system (copyright 2003, Gaussian, Inc.),
 the Gaussian(R) 98 system (copyright 1998, Gaussian, Inc.),
 the Gaussian(R) 94 system (copyright 1995, Gaussian, Inc.),
 the Gaussian 92(TM) system (copyright 1992, Gaussian, Inc.),
 the Gaussian 90(TM) system (copyright 1990, Gaussian, Inc.),
 the Gaussian 88(TM) system (copyright 1988, Gaussian, Inc.),
 the Gaussian 86(TM) system (copyright 1986, Carnegie Mellon
 University), and the Gaussian 82(TM) system (copyright 1983,
 Carnegie Mellon University). Gaussian is a federally registered
 trademark of Gaussian, Inc.
  
 This software contains proprietary and confidential information,
 including trade secrets, belonging to Gaussian, Inc.
  
 This software is provided under written license and may be
 used, copied, transmitted, or stored only in accord with that
 written license.
  
 The following legend is applicable only to US Government
 contracts under FAR:
  
                    RESTRICTED RIGHTS LEGEND
  
 Use, reproduction and disclosure by the US Government is
 subject to restrictions as set forth in subparagraphs (a)
 and (c) of the Commercial Computer Software - Restricted
 Rights clause in FAR 52.227-19.
  
 Gaussian, Inc.
 340 Quinnipiac St., Bldg. 40, Wallingford CT 06492
  
  
 ---------------------------------------------------------------
 Warning -- This program may not be used in any manner that
 competes with the business of Gaussian, Inc. or will provide
 assistance to any competitor of Gaussian, Inc.  The licensee
 of this program is prohibited from giving any competitor of
 Gaussian, Inc. access to this program.  By using this program,
 the user acknowledges that Gaussian, Inc. is engaged in the
 business of creating and licensing software in the field of
 computational chemistry and represents and warrants to the
 licensee that it is not a competitor of Gaussian, Inc. and that
 it will not use this program in any manner prohibited above.
 ---------------------------------------------------------------
  

 Cite this work as:
 Gaussian 09, Revision A.02,
 M. J. Frisch, G. W. Trucks, H. B. Schlegel, G. E. Scuseria, 
 M. A. Robb, J. R. Cheeseman, G. Scalmani, V. Barone, B. Mennucci, 
 G. A. Petersson, H. Nakatsuji, M. Caricato, X. Li, H. P. Hratchian, 
 A. F. Izmaylov, J. Bloino, G. Zheng, J. L. Sonnenberg, M. Hada, 
 M. Ehara, K. Toyota, R. Fukuda, J. Hasegawa, M. Ishida, T. Nakajima, 
 Y. Honda, O. Kitao, H. Nakai, T. Vreven, J. A. Montgomery, Jr., 
 J. E. Peralta, F. Ogliaro, M. Bearpark, J. J. Heyd, E. Brothers, 
 K. N. Kudin, V. N. Staroverov, R. Kobayashi, J. Normand, 
 K. Raghavachari, A. Rendell, J. C. Burant, S. S. Iyengar, J. Tomasi, 
 M. Cossi, N. Rega, J. M. Millam, M. Klene, J. E. Knox, J. B. Cross, 
 V. Bakken, C. Adamo, J. Jaramillo, R. Gomperts, R. E. Stratmann, 
 O. Yazyev, A. J. Austin, R. Cammi, C. Pomelli, J. W. Ochterski, 
 R. L. Martin, K. Morokuma, V. G. Zakrzewski, G. A. Voth, 
 P. Salvador, J. J. Dannenberg, S. Dapprich, A. D. Daniels, 
 O. Farkas, J. B. Foresman, J. V. Ortiz, J. Cioslowski, 
 and D. J. Fox, Gaussian, Inc., Wallingford CT, 2009.
 
 ******************************************
 Gaussian 09:  IA32W-G09RevA.02 11-Jun-2009
                17-Dec-2024 
 ******************************************
 %chk=C:\G09W\Hw5\energy80.chk
 ----------------------------------
 # td b3lyp/3-21g geom=connectivity
 ----------------------------------
 1/38=1,57=2/1;
 2/12=2,17=6,18=5,40=1/2;
 3/5=5,11=2,16=1,25=1,30=1,74=-5/1,2,8,3;
 4//1;
 5/5=2,38=5/2;
 8/6=1,10=1/1;
 9/42=1/14;
 6/7=2,8=2,9=2,10=2/1;
 99/5=1,9=1/99;
 -------------------
 Title Card Required
 -------------------
 Symbolic Z-matrix:
 Charge =  0 Multiplicity = 1
 C                     2.94545   0.01532  -0.06236 
 C                     2.28454   0.86966   0.80936 
 C                     0.90453   0.8653    0.86357 
 C                     0.16338   0.01683   0.05507 
 C                     0.83481  -0.83528  -0.81517 
 C                     2.21242  -0.84024  -0.87646 
 H                     2.85004   1.52806   1.43702 
 H                     0.38143   1.51544   1.53267 
 H                     0.27414  -1.49537  -1.44594 
 H                     2.72403  -1.49891  -1.54866 
 C                     4.37253   0.01404  -0.12323 
 N                     5.51208   0.01276  -0.17203 
 N                    -1.25802   0.0432    0.13227 
 C                    -1.96905  -1.20461   0.49765 
 H                    -1.66709  -2.03171  -0.14331 
 C                    -1.99632   0.8094   -0.91371 
 H                    -1.42571   0.83516  -1.83532 
 C                    -2.24768   2.23789  -0.42568 
 H                    -2.83968   2.21484   0.48102 
 H                    -1.30858   2.73322  -0.20771 
 H                    -2.77325   2.81511  -1.17919 
 C                    -1.72516  -1.57012   1.96127 
 H                    -0.6789   -1.7896    2.13815 
 H                    -2.01425  -0.7371    2.58988 
 H                    -2.30685  -2.44356   2.23591 
 C                    -3.42551  -0.8258    0.18977 
 H                    -4.06048  -1.69475   0.0781 
 H                    -3.80749  -0.2084    0.99364 
 C                    -3.30484  -0.00025  -1.1065 
 H                    -4.15689   0.64422  -1.2755 
 H                    -3.20589  -0.66998  -1.95319 
 
                          Input orientation:                          
 ---------------------------------------------------------------------
 Center     Atomic      Atomic             Coordinates (Angstroms)
 Number     Number       Type             X           Y           Z
 ---------------------------------------------------------------------
      1          6           0        2.945451    0.015320   -0.062361
      2          6           0        2.284535    0.869658    0.809364
      3          6           0        0.904534    0.865303    0.863570
      4          6           0        0.163381    0.016831    0.055073
      5          6           0        0.834811   -0.835283   -0.815174
      6          6           0        2.212418   -0.840236   -0.876460
      7          1           0        2.850039    1.528063    1.437021
      8          1           0        0.381433    1.515444    1.532665
      9          1           0        0.274138   -1.495369   -1.445942
     10          1           0        2.724026   -1.498907   -1.548662
     11          6           0        4.372529    0.014038   -0.123227
     12          7           0        5.512076    0.012764   -0.172034
     13          7           0       -1.258023    0.043204    0.132268
     14          6           0       -1.969046   -1.204615    0.497647
     15          1           0       -1.667095   -2.031713   -0.143307
     16          6           0       -1.996318    0.809397   -0.913711
     17          1           0       -1.425714    0.835158   -1.835324
     18          6           0       -2.247682    2.237888   -0.425684
     19          1           0       -2.839679    2.214841    0.481018
     20          1           0       -1.308580    2.733223   -0.207706
     21          1           0       -2.773254    2.815112   -1.179192
     22          6           0       -1.725164   -1.570120    1.961274
     23          1           0       -0.678901   -1.789602    2.138153
     24          1           0       -2.014248   -0.737103    2.589881
     25          1           0       -2.306852   -2.443557    2.235913
     26          6           0       -3.425508   -0.825804    0.189772
     27          1           0       -4.060484   -1.694748    0.078095
     28          1           0       -3.807493   -0.208397    0.993640
     29          6           0       -3.304835   -0.000247   -1.106496
     30          1           0       -4.156889    0.644224   -1.275505
     31          1           0       -3.205895   -0.669978   -1.953186
 ---------------------------------------------------------------------
                    Distance matrix (angstroms):
                    1          2          3          4          5
     1  C    0.000000
     2  C    1.388023   0.000000
     3  C    2.396907   1.381072   0.000000
     4  C    2.784548   2.407398   1.386679   0.000000
     5  C    2.396884   2.765438   2.390614   1.390772   0.000000
     6  C    1.389989   2.402278   2.765344   2.408500   1.378978
     7  H    2.132051   1.071095   2.133796   3.378126   3.836526
     8  H    3.371746   2.135884   1.069582   2.115813   3.353180
     9  H    3.366362   3.836855   3.362145   2.133556   1.071418
    10  H    2.133308   3.370985   3.836522   3.380286   2.132495
    11  C    1.428376   2.441625   3.704782   4.212924   3.703456
    12  N    2.568968   3.480579   4.798827   5.353516   4.796834
    13  N    4.208070   3.700162   2.426376   1.423743   2.459541
    14  C    5.094520   4.742650   3.560326   2.497007   3.117935
    15  H    5.047026   4.994088   4.002471   2.754365   2.853486
    16  C    5.077050   4.615011   3.402469   2.496198   3.275664
    17  H    4.787757   4.556480   3.565809   2.601631   2.990159
    18  C    5.660428   4.892688   3.671871   3.313223   4.370109
    19  H    6.212961   5.308003   3.998341   3.745804   4.948257
    20  H    5.050238   4.173462   3.087820   3.100727   4.206825
    21  H    6.464498   5.772381   4.636891   4.240002   5.145486
    22  C    5.331356   4.832918   3.748540   3.117469   3.847352
    23  H    4.608246   4.197535   3.343703   2.883030   3.453142
    24  H    5.674429   4.922546   3.750619   3.425746   4.440853
    25  H    6.238175   5.838945   4.810913   4.112375   4.665375
    26  C    6.431188   5.988579   4.697139   3.688943   4.377251
    27  H    7.212987   6.882601   5.641120   4.557529   5.049804
    28  H    6.838673   6.189424   4.834558   4.086500   5.021532
    29  C    6.336918   5.972295   4.727486   3.657603   4.233063
    30  H    7.232597   6.774174   5.499320   4.563857   5.226654
    31  H    6.471778   6.336164   5.214099   3.982063   4.201155
                    6          7          8          9         10
     6  C    0.000000
     7  H    3.371586   0.000000
     8  H    3.834790   2.470490   0.000000
     9  H    2.123779   4.907941   4.236580   0.000000
    10  H    1.071189   4.253555   4.905979   2.452043   0.000000
    11  C    2.441971   2.654171   4.574390   4.563408   2.653004
    12  N    3.480168   3.460004   5.611376   5.597616   3.457380
    13  N    3.720478   4.558877   2.610827   2.684301   4.589155
    14  C    4.416513   5.619033   3.740953   2.982273   5.128247
    15  H    4.124045   5.964389   4.425796   2.398522   4.641212
    16  C    4.520635   5.434115   3.483814   3.278748   5.292739
    17  H    4.118540   5.428667   3.882257   2.910751   4.769736
    18  C    5.437880   5.473599   3.356979   4.619276   6.320016
    19  H    6.058046   5.810206   3.459867   5.212935   6.990446
    20  H    5.061054   4.631592   2.714410   4.681796   5.997583
    21  H    6.189519   6.334232   4.358366   5.285641   6.997668
    22  C    4.908158   5.550321   3.760607   3.951191   5.667451
    23  H    4.283563   4.894068   3.523387   3.720295   5.025637
    24  H    5.467254   5.488292   3.454122   4.701016   6.337123
    25  H    5.716757   6.557860   4.836851   4.595283   6.365933
    26  C    5.737880   6.817537   4.666648   4.100153   6.425884
    27  H    6.402395   7.745226   5.670250   4.599064   6.979561
    28  H    6.335285   6.894535   4.561719   4.926213   7.126673
    29  C    5.585569   6.832839   4.780278   3.893541   6.228054
    30  H    6.552169   7.565448   5.407514   4.923505   7.212116
    31  H    5.526883   7.280056   5.458584   3.612367   6.001227
                   11         12         13         14         15
    11  C    0.000000
    12  N    1.140592   0.000000
    13  N    5.636421   6.777003   0.000000
    14  C    6.487386   7.609052   1.481927   0.000000
    15  H    6.376720   7.464664   2.132735   1.089077   0.000000
    16  C    6.466814   7.586877   1.492047   2.459455   2.962062
    17  H    6.101240   7.181629   2.127611   3.146210   3.337684
    18  C    6.990292   8.076470   2.471311   3.575053   4.318137
    19  H    7.564693   8.661837   2.709109   3.528591   4.449489
    20  H    6.298897   7.343264   2.711889   4.054665   4.778838
    21  H    7.747470   8.804216   3.420428   4.429079   5.078224
    22  C    6.636004   7.709355   2.483203   1.528161   2.155388
    23  H    5.820988   6.849357   2.778153   2.167474   2.498040
    24  H    6.979691   8.052082   2.687121   2.144307   3.044150
    25  H    7.497963   8.542093   3.421892   2.161171   2.497918
    26  C    7.849375   8.984125   2.335909   1.536088   2.158049
    27  H    8.606753   9.726874   3.298060   2.188691   2.427113
    28  H    8.258913   9.394790   2.702788   2.149034   3.032892
    29  C    7.740087   8.866302   2.392878   2.410002   2.781507
    30  H    8.629939   9.752193   3.278181   3.368817   3.826432
    31  H    7.826183   8.924217   2.941420   2.796822   2.738227
                   16         17         18         19         20
    16  C    0.000000
    17  H    1.084262   0.000000
    18  C    1.530340   2.151829   0.000000
    19  H    2.152161   3.044381   1.083097   0.000000
    20  H    2.161605   2.503100   1.083875   1.757078   0.000000
    21  H    2.167257   2.483262   1.084982   1.766644   1.759478
    22  C    3.741813   4.504352   4.524547   4.214171   4.837022
    23  H    4.219509   4.820334   5.025437   4.842585   5.133760
    24  H    3.829770   4.732950   4.242487   3.720567   4.513050
    25  H    4.538532   5.301071   5.385493   5.006420   5.810927
    26  C    2.436009   3.295297   3.339501   3.110232   4.160054
    27  H    3.393405   4.123544   4.359550   4.115532   5.221263
    28  H    2.820328   3.842515   3.229831   2.659235   4.042392
    29  C    1.550776   2.181786   2.567163   2.764631   3.502102
    30  H    2.196871   2.794489   2.628123   2.699491   3.690119
    31  H    2.175346   2.334174   3.421566   3.792313   4.269459
                   21         22         23         24         25
    21  H    0.000000
    22  C    5.494659   0.000000
    23  H    6.049338   1.083570   0.000000
    24  H    5.234523   1.082883   1.759251   0.000000
    25  H    6.287613   1.084749   1.757111   1.767173   0.000000
    26  C    3.944080   2.565813   3.502706   2.785687   2.838171
    27  H    4.855571   3.002601   3.960801   3.378348   2.879604
    28  H    3.864254   2.669588   3.687575   2.458301   2.964980
    29  C    2.866027   3.790920   4.541483   3.983940   4.258807
    30  H    2.576136   4.614471   5.447290   4.630354   5.028626
    31  H    3.596122   4.280866   4.937440   4.697232   4.637069
                   26         27         28         29         30
    26  C    0.000000
    27  H    1.082003   0.000000
    28  H    1.083194   1.763935   0.000000
    29  C    1.541563   2.201271   2.169462   0.000000
    30  H    2.200666   2.704129   2.449093   1.081620   0.000000
    31  H    2.159810   2.430345   3.042821   1.084072   1.758057
                   31
    31  H    0.000000
 Stoichiometry    C13H16N2
 Framework group  C1[X(C13H16N2)]
 Deg. of freedom    87
 Full point group                 C1      NOp   1
 Largest Abelian subgroup         C1      NOp   1
 Largest concise Abelian subgroup C1      NOp   1
                         Standard orientation:                         
 ---------------------------------------------------------------------
 Center     Atomic      Atomic             Coordinates (Angstroms)
 Number     Number       Type             X           Y           Z
 ---------------------------------------------------------------------
      1          6           0        2.945496    0.024749   -0.063034
      2          6           0        2.293807    0.420107    1.096967
      3          6           0        0.913675    0.413832    1.147537
      4          6           0        0.163283    0.017767    0.050758
      5          6           0        0.825512   -0.376405   -1.106967
      6          6           0        2.203140   -0.375349   -1.167977
      7          1           0        2.866480    0.727479    1.948326
      8          1           0        0.397573    0.712497    2.035480
      9          1           0        0.257657   -0.683997   -1.961873
     10          1           0        2.707634   -0.680136   -2.062424
     11          6           0        4.372642    0.028150   -0.122190
     12          7           0        5.512241    0.030731   -0.169721
     13          7           0       -1.257881    0.029656    0.135581
     14          6           0       -1.989310   -1.240744   -0.081680
     15          1           0       -1.697134   -1.707312   -1.021380
     16          6           0       -1.979922    1.188463   -0.466105
     17          1           0       -1.404984    1.607133   -1.284509
     18          6           0       -2.211741    2.261676    0.599922
     19          1           0       -2.807962    1.852320    1.406177
     20          1           0       -1.266201    2.596494    1.010576
     21          1           0       -2.725222    3.119070    0.177547
     22          6           0       -1.757370   -2.215128    1.072467
     23          1           0       -0.715333   -2.506176    1.132243
     24          1           0       -2.036538   -1.738023    2.003634
     25          1           0       -2.353414   -3.111353    0.937589
     26          6           0       -3.438512   -0.742699   -0.188134
     27          1           0       -4.086086   -1.464554   -0.668033
     28          1           0       -3.814598   -0.534771    0.806166
     29          6           0       -3.299701    0.565931   -0.991026
     30          1           0       -4.141150    1.232347   -0.857779
     31          1           0       -3.207231    0.334174   -2.045990
 ---------------------------------------------------------------------
 Rotational constants (GHZ):      1.4275145      0.3123882      0.2950437
 Standard basis: 3-21G (6D, 7F)
 There are   167 symmetry adapted basis functions of A   symmetry.
 Integral buffers will be    262144 words long.
 Raffenetti 2 integral format.
 Two-electron integral symmetry is turned on.
   167 basis functions,   273 primitive gaussians,   167 cartesian basis functions
    54 alpha electrons       54 beta electrons
       nuclear repulsion energy       949.8790629918 Hartrees.
 NAtoms=   31 NActive=   31 NUniq=   31 SFac= 7.50D-01 NAtFMM=   80 NAOKFM=F Big=F
 One-electron integrals computed using PRISM.
 NBasis=   167 RedAO= T  NBF=   167
 NBsUse=   167 1.00D-06 NBFU=   167
 Harris functional with IExCor=  402 diagonalized for initial guess.
 ExpMin= 1.83D-01 ExpMax= 2.43D+02 ExpMxC= 2.43D+02 IAcc=1 IRadAn=         1 AccDes= 0.00D+00
 HarFok:  IExCor=  402 AccDes= 0.00D+00 IRadAn=         1 IDoV= 1
 ScaDFX=  1.000000  1.000000  1.000000  1.000000
 FoFCou: FMM=F IPFlag=           0 FMFlag=      100000 FMFlg1=           0
         NFxFlg=           0 DoJE=T BraDBF=F KetDBF=T FulRan=T
         Omega=  0.000000  0.000000  1.000000  0.000000  0.000000 ICntrl=     500 IOpCl=  0
         NMat0=    1 NMatS0=    1 NMatT0=    0 NMatD0=    1 NMtDS0=    0 NMtDT0=    0
         I1Cent=           4 NGrid=           0.
 Petite list used in FoFCou.
 Initial guess orbital symmetries:
       Occupied  (A) (A) (A) (A) (A) (A) (A) (A) (A) (A) (A) (A)
                 (A) (A) (A) (A) (A) (A) (A) (A) (A) (A) (A) (A)
                 (A) (A) (A) (A) (A) (A) (A) (A) (A) (A) (A) (A)
                 (A) (A) (A) (A) (A) (A) (A) (A) (A) (A) (A) (A)
                 (A) (A) (A) (A) (A) (A)
       Virtual   (A) (A) (A) (A) (A) (A) (A) (A) (A) (A) (A) (A)
                 (A) (A) (A) (A) (A) (A) (A) (A) (A) (A) (A) (A)
                 (A) (A) (A) (A) (A) (A) (A) (A) (A) (A) (A) (A)
                 (A) (A) (A) (A) (A) (A) (A) (A) (A) (A) (A) (A)
                 (A) (A) (A) (A) (A) (A) (A) (A) (A) (A) (A) (A)
                 (A) (A) (A) (A) (A) (A) (A) (A) (A) (A) (A) (A)
                 (A) (A) (A) (A) (A) (A) (A) (A) (A) (A) (A) (A)
                 (A) (A) (A) (A) (A) (A) (A) (A) (A) (A) (A) (A)
                 (A) (A) (A) (A) (A) (A) (A) (A) (A) (A) (A) (A)
                 (A) (A) (A) (A) (A)
 The electronic state of the initial guess is 1-A.
 Requested convergence on RMS density matrix=1.00D-08 within 128 cycles.
 Requested convergence on MAX density matrix=1.00D-06.
 Requested convergence on             energy=1.00D-06.
 No special actions if energy rises.
 Integral accuracy reduced to 1.0D-05 until final iterations.
 Initial convergence to 1.0D-05 achieved.  Increase integral accuracy.
 SCF Done:  E(RB3LYP) =  -611.147884471     A.U. after   15 cycles
             Convg  =    0.9670D-08             -V/T =  2.0074
 ExpMin= 1.83D-01 ExpMax= 2.43D+02 ExpMxC= 2.43D+02 IAcc=1 IRadAn=         1 AccDes= 0.00D+00
 HarFok:  IExCor=  205 AccDes= 0.00D+00 IRadAn=         1 IDoV=-2
 ScaDFX=  1.000000  1.000000  1.000000  1.000000
 Range of M.O.s used for correlation:    16   167
 NBasis=   167 NAE=    54 NBE=    54 NFC=    15 NFV=     0
 NROrb=    152 NOA=    39 NOB=    39 NVA=   113 NVB=   113
 Would need an additional   268100000 words for in-memory AO integral storage.
 Orbital symmetries:
       Occupied  (A) (A) (A) (A) (A) (A) (A) (A) (A) (A) (A) (A)
                 (A) (A) (A) (A) (A) (A) (A) (A) (A) (A) (A) (A)
                 (A) (A) (A) (A) (A) (A) (A) (A) (A) (A) (A) (A)
                 (A) (A) (A) (A) (A) (A) (A) (A) (A) (A) (A) (A)
                 (A) (A) (A) (A) (A) (A)
       Virtual   (A) (A) (A) (A) (A) (A) (A) (A) (A) (A) (A) (A)
                 (A) (A) (A) (A) (A) (A) (A) (A) (A) (A) (A) (A)
                 (A) (A) (A) (A) (A) (A) (A) (A) (A) (A) (A) (A)
                 (A) (A) (A) (A) (A) (A) (A) (A) (A) (A) (A) (A)
                 (A) (A) (A) (A) (A) (A) (A) (A) (A) (A) (A) (A)
                 (A) (A) (A) (A) (A) (A) (A) (A) (A) (A) (A) (A)
                 (A) (A) (A) (A) (A) (A) (A) (A) (A) (A) (A) (A)
                 (A) (A) (A) (A) (A) (A) (A) (A) (A) (A) (A) (A)
                 (A) (A) (A) (A) (A) (A) (A) (A) (A) (A) (A) (A)
                 (A) (A) (A) (A) (A)
    12 initial guesses have been made.
 Convergence on wavefunction:    0.001000000000000
 Iteration     1 Dimension    12 NMult    12
 CISAX will form    12 AO SS matrices at one time.
 No map to state      3
 Iteration     2 Dimension    18 NMult    18
 Iteration     3 Dimension    24 NMult    24
 Iteration     4 Dimension    30 NMult    30
 Iteration     5 Dimension    34 NMult    34
 Iteration     6 Dimension    36 NMult    36
 ***********************************************************************
 Excited states from <AA,BB:AA,BB> singles matrix:
 ***********************************************************************
 
 Ground to excited state transition electric dipole moments (Au):
       state          X           Y           Z        Dip. S.      Osc.
         1         0.4522     -0.0048     -0.0007      0.2045      0.0180
         2        -0.0181     -0.0097     -0.0834      0.0074      0.0008
         3        -0.0829     -0.0536     -0.1402      0.0294      0.0039
 Ground to excited state transition velocity dipole moments (Au):
       state          X           Y           Z        Dip. S.      Osc.
         1        -0.0487      0.0022     -0.0020      0.0024      0.0120
         2         0.0026      0.0004      0.0149      0.0002      0.0010
         3         0.0147      0.0086      0.0225      0.0008      0.0027
 Ground to excited state transition magnetic dipole moments (Au):
       state          X           Y           Z
         1         0.2685     -0.0097      0.0830
         2         0.0728     -0.1364      0.2298
         3         0.0178      0.0176      0.0197
 <0|del|b> * <b|rxdel|0> + <0|del|b> * <b|delr+rdel|0>
 Rotatory Strengths (R) in cgs (10**-40 erg-esu-cm/Gauss)
       state          XX          YY          ZZ    R(velocity)
         1        -0.5158    -35.1472    -35.3929    -23.6853
 Total R(velocity) tensor for State=          1
                 1             2             3 
      1  -0.515774D+00 -0.513634D+01  0.679898D+01
      2  -0.186287D+01 -0.351472D+02  0.652697D+01
      3   0.147078D+01 -0.855462D-01 -0.353929D+02
 R(velocity) tensor in inp. orien. for State=          1
                 1             2             3 
      1  -0.438068D+00 -0.115031D+01  0.812065D+01
      2  -0.517904D+00 -0.326874D+02  0.531797D+01
      3   0.199726D+01 -0.138538D+01 -0.379304D+02
         2         6.6230      9.1384      0.1782      5.3132
 Total R(velocity) tensor for State=          2
                 1             2             3 
      1   0.662301D+01  0.573782D+00 -0.116314D+01
      2   0.267267D+00  0.913843D+01 -0.267913D+00
      3  -0.157534D+01  0.392432D+01  0.178219D+00
 R(velocity) tensor in inp. orien. for State=          2
                 1             2             3 
      1   0.661815D+01 -0.300147D-01 -0.125537D+01
      2  -0.504573D+00  0.884742D+01 -0.452228D+01
      3  -0.155474D+01 -0.336134D+00  0.474088D+00
         3         0.6753      0.2495      2.1225      1.0158
 Total R(velocity) tensor for State=          3
                 1             2             3 
      1   0.675300D+00 -0.858027D+00 -0.112848D+00
      2  -0.792928D+00  0.249513D+00  0.422201D+00
      3  -0.361782D+00 -0.493563D+01  0.212254D+01
 R(velocity) tensor in inp. orien. for State=          3
                 1             2             3 
      1   0.701939D+00 -0.806671D+00  0.256723D+00
      2  -0.834062D+00 -0.119474D+01  0.203757D+01
      3   0.856636D-01 -0.332364D+01  0.354016D+01
 1/2[<0|r|b>*<b|rxdel|0> + (<0|rxdel|b>*<b|r|0>)*]
 Rotatory Strengths (R) in cgs (10**-40 erg-esu-cm/Gauss)
       state          XX          YY          ZZ     R(length)     R(au)
         1       -85.8688     -0.0331      0.0430    -28.6196     -0.0607
         2         0.9345     -0.9380     13.5588      4.5184      0.0096
         3         1.0427      0.6683      1.9505      1.2205      0.0026
  1/2[<0|del|b>*<b|r|0> + (<0|r|b>*<b|del|0>)*] (Au)
       state          X           Y           Z        Dip. S.   Osc.(frdel)
         1        -0.0220      0.0000      0.0000      0.0220      0.0147
         2         0.0000      0.0000     -0.0012      0.0013      0.0009
         3        -0.0012     -0.0005     -0.0032      0.0048      0.0032
 Ground to excited state transition densities written to RWF  633

 Excitation energies and oscillator strengths:
 
 Excited State   1:      Singlet-A      3.5932 eV  345.05 nm  f=0.0180  <S**2>=0.000
      54 -> 55         0.70215
 This state for optimization and/or second-order correction.
 Copying the excited state density for this state as the 1-particle RhoCI density.
 
 Excited State   2:      Singlet-A      4.2957 eV  288.62 nm  f=0.0008  <S**2>=0.000
      54 -> 56         0.70537
 
 Excited State   3:      Singlet-A      5.4116 eV  229.11 nm  f=0.0039  <S**2>=0.000
      52 -> 55         0.53333
      53 -> 56         0.45982
 SavETr:  write IOETrn=   770 NScale= 10 NData=  16 NLR=1 LETran=      62.

 **********************************************************************

            Population analysis using the SCF density.

 **********************************************************************

 Orbital symmetries:
       Occupied  (A) (A) (A) (A) (A) (A) (A) (A) (A) (A) (A) (A)
                 (A) (A) (A) (A) (A) (A) (A) (A) (A) (A) (A) (A)
                 (A) (A) (A) (A) (A) (A) (A) (A) (A) (A) (A) (A)
                 (A) (A) (A) (A) (A) (A) (A) (A) (A) (A) (A) (A)
                 (A) (A) (A) (A) (A) (A)
       Virtual   (A) (A) (A) (A) (A) (A) (A) (A) (A) (A) (A) (A)
                 (A) (A) (A) (A) (A) (A) (A) (A) (A) (A) (A) (A)
                 (A) (A) (A) (A) (A) (A) (A) (A) (A) (A) (A) (A)
                 (A) (A) (A) (A) (A) (A) (A) (A) (A) (A) (A) (A)
                 (A) (A) (A) (A) (A) (A) (A) (A) (A) (A) (A) (A)
                 (A) (A) (A) (A) (A) (A) (A) (A) (A) (A) (A) (A)
                 (A) (A) (A) (A) (A) (A) (A) (A) (A) (A) (A) (A)
                 (A) (A) (A) (A) (A) (A) (A) (A) (A) (A) (A) (A)
                 (A) (A) (A) (A) (A) (A) (A) (A) (A) (A) (A) (A)
                 (A) (A) (A) (A) (A)
 The electronic state is 1-A.
 Alpha  occ. eigenvalues --  -14.24693 -14.24387 -10.17436 -10.17327 -10.15721
 Alpha  occ. eigenvalues --  -10.15704 -10.15668 -10.15037 -10.14922 -10.14120
 Alpha  occ. eigenvalues --  -10.13752 -10.12280 -10.12116 -10.10680 -10.10437
 Alpha  occ. eigenvalues --   -0.94813  -0.93422  -0.88572  -0.81120  -0.78153
 Alpha  occ. eigenvalues --   -0.77539  -0.75552  -0.71375  -0.65160  -0.64931
 Alpha  occ. eigenvalues --   -0.63913  -0.58428  -0.57628  -0.56931  -0.52852
 Alpha  occ. eigenvalues --   -0.49820  -0.48186  -0.46687  -0.45459  -0.45037
 Alpha  occ. eigenvalues --   -0.43554  -0.43277  -0.41263  -0.41096  -0.40077
 Alpha  occ. eigenvalues --   -0.38878  -0.38094  -0.37165  -0.37047  -0.36330
 Alpha  occ. eigenvalues --   -0.34381  -0.34283  -0.33797  -0.33526  -0.33181
 Alpha  occ. eigenvalues --   -0.33045  -0.27566  -0.26162  -0.20578
 Alpha virt. eigenvalues --   -0.03951  -0.01426   0.05454   0.08942   0.09944
 Alpha virt. eigenvalues --    0.10686   0.12104   0.13742   0.14460   0.14790
 Alpha virt. eigenvalues --    0.16501   0.16763   0.17168   0.18466   0.18894
 Alpha virt. eigenvalues --    0.18967   0.20047   0.20614   0.21366   0.21731
 Alpha virt. eigenvalues --    0.22339   0.22732   0.23261   0.24490   0.24754
 Alpha virt. eigenvalues --    0.26348   0.27922   0.29415   0.31137   0.33268
 Alpha virt. eigenvalues --    0.33855   0.35806   0.38190   0.39411   0.50452
 Alpha virt. eigenvalues --    0.54002   0.59589   0.64297   0.66018   0.66260
 Alpha virt. eigenvalues --    0.67829   0.69246   0.69880   0.70516   0.70740
 Alpha virt. eigenvalues --    0.72077   0.72879   0.74144   0.74695   0.75773
 Alpha virt. eigenvalues --    0.76235   0.76859   0.77439   0.78306   0.78644
 Alpha virt. eigenvalues --    0.80185   0.81317   0.83781   0.84274   0.86974
 Alpha virt. eigenvalues --    0.90925   0.92069   0.93080   0.93709   0.94475
 Alpha virt. eigenvalues --    0.95810   0.96164   0.99624   1.00311   1.00544
 Alpha virt. eigenvalues --    1.00880   1.03847   1.05533   1.06144   1.07902
 Alpha virt. eigenvalues --    1.08400   1.09099   1.10170   1.12016   1.12742
 Alpha virt. eigenvalues --    1.13804   1.14801   1.16211   1.17457   1.18542
 Alpha virt. eigenvalues --    1.19507   1.20905   1.24732   1.27758   1.28457
 Alpha virt. eigenvalues --    1.33008   1.35356   1.39800   1.41468   1.49603
 Alpha virt. eigenvalues --    1.51301   1.52691   1.54079   1.58192   1.61165
 Alpha virt. eigenvalues --    1.74311   1.76523   1.78663   1.83581   1.92891
 Alpha virt. eigenvalues --    1.95701   1.98487   2.20236   2.38345   2.42733
 Alpha virt. eigenvalues --    2.50565   2.97358   2.99908
          Condensed to atoms (all electrons):
              1          2          3          4          5          6
     1  C    5.428730   0.445933  -0.083781  -0.030503  -0.084020   0.445970
     2  C    0.445933   5.182823   0.400026  -0.071394  -0.018526  -0.060928
     3  C   -0.083781   0.400026   5.240458   0.446999  -0.115151  -0.021450
     4  C   -0.030503  -0.071394   0.446999   5.007724   0.341244  -0.047677
     5  C   -0.084020  -0.018526  -0.115151   0.341244   5.353521   0.382629
     6  C    0.445970  -0.060928  -0.021450  -0.047677   0.382629   5.182800
     7  H   -0.044134   0.396075  -0.032655   0.004142  -0.000297   0.003835
     8  H    0.004598  -0.037282   0.378617  -0.042124   0.006181  -0.000503
     9  H    0.004613  -0.000160   0.004022  -0.049287   0.396207  -0.042549
    10  H   -0.043075   0.003768  -0.000215   0.003517  -0.032550   0.395808
    11  C    0.069644  -0.077606   0.004096  -0.000134   0.004497  -0.077432
    12  N   -0.117056  -0.000778  -0.000006   0.000000  -0.000007  -0.000787
    13  N   -0.000331   0.004539  -0.069930   0.324116  -0.072355   0.005047
    14  C    0.000004  -0.000139   0.001380  -0.070329  -0.003116   0.000377
    15  H    0.000003   0.000021  -0.000293  -0.004147   0.003778  -0.000439
    16  C    0.000014  -0.000090   0.000417  -0.070950  -0.002688   0.000103
    17  H   -0.000004   0.000052  -0.000501  -0.003180   0.005484  -0.000348
    18  C   -0.000001  -0.000010   0.000484  -0.000960  -0.000370   0.000011
    19  H    0.000000   0.000003  -0.000035   0.000036   0.000010   0.000000
    20  H   -0.000002   0.000046   0.001729   0.001726   0.000055  -0.000005
    21  H    0.000000   0.000001  -0.000039   0.000038   0.000014   0.000000
    22  C    0.000001   0.000024   0.000761  -0.003256  -0.000943   0.000000
    23  H   -0.000014  -0.000017   0.000837   0.003767   0.000361   0.000007
    24  H    0.000000   0.000014  -0.000049   0.000108   0.000074  -0.000002
    25  H    0.000000   0.000000  -0.000020   0.000107   0.000022  -0.000001
    26  C    0.000000   0.000001  -0.000127   0.005344  -0.000036  -0.000002
    27  H    0.000000   0.000000   0.000000  -0.000087   0.000006   0.000000
    28  H    0.000000   0.000000   0.000004  -0.000153   0.000001   0.000000
    29  C    0.000000   0.000001  -0.000044   0.005019  -0.000107   0.000003
    30  H    0.000000   0.000000   0.000001  -0.000061  -0.000001   0.000000
    31  H    0.000000   0.000000   0.000003  -0.000193   0.000017   0.000000
              7          8          9         10         11         12
     1  C   -0.044134   0.004598   0.004613  -0.043075   0.069644  -0.117056
     2  C    0.396075  -0.037282  -0.000160   0.003768  -0.077606  -0.000778
     3  C   -0.032655   0.378617   0.004022  -0.000215   0.004096  -0.000006
     4  C    0.004142  -0.042124  -0.049287   0.003517  -0.000134   0.000000
     5  C   -0.000297   0.006181   0.396207  -0.032550   0.004497  -0.000007
     6  C    0.003835  -0.000503  -0.042549   0.395808  -0.077432  -0.000787
     7  H    0.477481  -0.004342   0.000002  -0.000051  -0.006305  -0.000109
     8  H   -0.004342   0.487778  -0.000042   0.000003  -0.000072   0.000000
     9  H    0.000002  -0.000042   0.494394  -0.004049  -0.000081   0.000000
    10  H   -0.000051   0.000003  -0.004049   0.476998  -0.006138  -0.000105
    11  C   -0.006305  -0.000072  -0.000081  -0.006138   4.954940   0.845360
    12  N   -0.000109   0.000000   0.000000  -0.000105   0.845360   6.746711
    13  N   -0.000021   0.000721  -0.007637  -0.000020   0.000000   0.000000
    14  C    0.000001  -0.000136   0.001537  -0.000001   0.000000   0.000000
    15  H    0.000000   0.000036   0.004237   0.000004   0.000000   0.000000
    16  C    0.000001  -0.000252   0.000533   0.000000   0.000000   0.000000
    17  H    0.000000   0.000127   0.000745   0.000003   0.000000   0.000000
    18  C    0.000000   0.000048  -0.000016   0.000000   0.000000   0.000000
    19  H    0.000000   0.000211   0.000001   0.000000   0.000000   0.000000
    20  H   -0.000002   0.001108  -0.000001   0.000000   0.000000   0.000000
    21  H    0.000000   0.000028   0.000001   0.000000   0.000000   0.000000
    22  C    0.000000  -0.000103  -0.000157   0.000000   0.000000   0.000000
    23  H   -0.000001  -0.000028  -0.000015   0.000000   0.000000   0.000000
    24  H    0.000000   0.000294   0.000005   0.000000   0.000000   0.000000
    25  H    0.000000   0.000006   0.000005   0.000000   0.000000   0.000000
    26  C    0.000000  -0.000010  -0.000121   0.000000   0.000000   0.000000
    27  H    0.000000   0.000000   0.000002   0.000000   0.000000   0.000000
    28  H    0.000000   0.000005   0.000002   0.000000   0.000000   0.000000
    29  C    0.000000  -0.000004  -0.000054   0.000000   0.000000   0.000000
    30  H    0.000000   0.000000   0.000000   0.000000   0.000000   0.000000
    31  H    0.000000   0.000000   0.000105   0.000000   0.000000   0.000000
             13         14         15         16         17         18
     1  C   -0.000331   0.000004   0.000003   0.000014  -0.000004  -0.000001
     2  C    0.004539  -0.000139   0.000021  -0.000090   0.000052  -0.000010
     3  C   -0.069930   0.001380  -0.000293   0.000417  -0.000501   0.000484
     4  C    0.324116  -0.070329  -0.004147  -0.070950  -0.003180  -0.000960
     5  C   -0.072355  -0.003116   0.003778  -0.002688   0.005484  -0.000370
     6  C    0.005047   0.000377  -0.000439   0.000103  -0.000348   0.000011
     7  H   -0.000021   0.000001   0.000000   0.000001   0.000000   0.000000
     8  H    0.000721  -0.000136   0.000036  -0.000252   0.000127   0.000048
     9  H   -0.007637   0.001537   0.004237   0.000533   0.000745  -0.000016
    10  H   -0.000020  -0.000001   0.000004   0.000000   0.000003   0.000000
    11  C    0.000000   0.000000   0.000000   0.000000   0.000000   0.000000
    12  N    0.000000   0.000000   0.000000   0.000000   0.000000   0.000000
    13  N    7.232351   0.269158  -0.049963   0.267641  -0.041335  -0.066815
    14  C    0.269158   5.293056   0.349943  -0.083286   0.001272   0.005399
    15  H   -0.049963   0.349943   0.623872   0.000695   0.001021  -0.000272
    16  C    0.267641  -0.083286   0.000695   5.297226   0.370446   0.269962
    17  H   -0.041335   0.001272   0.001021   0.370446   0.569868  -0.063670
    18  C   -0.066815   0.005399  -0.000272   0.269962  -0.063670   5.392465
    19  H    0.002833   0.000167   0.000028  -0.042998   0.004155   0.362048
    20  H   -0.001475  -0.000001   0.000000  -0.037776  -0.001657   0.365082
    21  H    0.003172  -0.000142   0.000010  -0.036889   0.002517   0.332800
    22  C   -0.060119   0.280919  -0.064027   0.004664  -0.000148  -0.000070
    23  H   -0.002798  -0.038085  -0.002686   0.000006  -0.000003   0.000003
    24  H    0.004464  -0.041877   0.004828   0.000017   0.000009  -0.000055
    25  H    0.002831  -0.037402   0.002456  -0.000093   0.000003  -0.000001
    26  C   -0.065921   0.269831  -0.047853  -0.090333   0.004981   0.000308
    27  H    0.002635  -0.036602  -0.000968   0.003978  -0.000034  -0.000107
    28  H    0.001585  -0.045729   0.004407   0.000573   0.000025   0.000743
    29  C   -0.050988  -0.089732  -0.002243   0.272726  -0.037745  -0.074383
    30  H    0.002286   0.004254  -0.000124  -0.038902   0.001268  -0.002102
    31  H    0.001260   0.001072   0.002003  -0.039072  -0.004526   0.003595
             19         20         21         22         23         24
     1  C    0.000000  -0.000002   0.000000   0.000001  -0.000014   0.000000
     2  C    0.000003   0.000046   0.000001   0.000024  -0.000017   0.000014
     3  C   -0.000035   0.001729  -0.000039   0.000761   0.000837  -0.000049
     4  C    0.000036   0.001726   0.000038  -0.003256   0.003767   0.000108
     5  C    0.000010   0.000055   0.000014  -0.000943   0.000361   0.000074
     6  C    0.000000  -0.000005   0.000000   0.000000   0.000007  -0.000002
     7  H    0.000000  -0.000002   0.000000   0.000000  -0.000001   0.000000
     8  H    0.000211   0.001108   0.000028  -0.000103  -0.000028   0.000294
     9  H    0.000001  -0.000001   0.000001  -0.000157  -0.000015   0.000005
    10  H    0.000000   0.000000   0.000000   0.000000   0.000000   0.000000
    11  C    0.000000   0.000000   0.000000   0.000000   0.000000   0.000000
    12  N    0.000000   0.000000   0.000000   0.000000   0.000000   0.000000
    13  N    0.002833  -0.001475   0.003172  -0.060119  -0.002798   0.004464
    14  C    0.000167  -0.000001  -0.000142   0.280919  -0.038085  -0.041877
    15  H    0.000028   0.000000   0.000010  -0.064027  -0.002686   0.004828
    16  C   -0.042998  -0.037776  -0.036889   0.004664   0.000006   0.000017
    17  H    0.004155  -0.001657   0.002517  -0.000148  -0.000003   0.000009
    18  C    0.362048   0.365082   0.332800  -0.000070   0.000003  -0.000055
    19  H    0.530819  -0.027220  -0.024072  -0.000106  -0.000001   0.000110
    20  H   -0.027220   0.527880  -0.026881  -0.000002   0.000000   0.000001
    21  H   -0.024072  -0.026881   0.570875  -0.000002   0.000000   0.000002
    22  C   -0.000106  -0.000002  -0.000002   5.368770   0.368236   0.355226
    23  H   -0.000001   0.000000   0.000000   0.368236   0.522393  -0.026928
    24  H    0.000110   0.000001   0.000002   0.355226  -0.026928   0.529342
    25  H    0.000002   0.000000   0.000000   0.346614  -0.028543  -0.022883
    26  C    0.001753  -0.000166   0.000262  -0.057613   0.003850  -0.004647
    27  H   -0.000013   0.000002   0.000003   0.000085  -0.000082   0.000031
    28  H    0.001833  -0.000043   0.000066  -0.004877   0.000028   0.005420
    29  C   -0.003470   0.003911  -0.000687   0.005133  -0.000142  -0.000067
    30  H    0.000566   0.000083   0.001444  -0.000068   0.000001  -0.000003
    31  H    0.000031  -0.000089   0.000000  -0.000056   0.000003   0.000002
             25         26         27         28         29         30
     1  C    0.000000   0.000000   0.000000   0.000000   0.000000   0.000000
     2  C    0.000000   0.000001   0.000000   0.000000   0.000001   0.000000
     3  C   -0.000020  -0.000127   0.000000   0.000004  -0.000044   0.000001
     4  C    0.000107   0.005344  -0.000087  -0.000153   0.005019  -0.000061
     5  C    0.000022  -0.000036   0.000006   0.000001  -0.000107  -0.000001
     6  C   -0.000001  -0.000002   0.000000   0.000000   0.000003   0.000000
     7  H    0.000000   0.000000   0.000000   0.000000   0.000000   0.000000
     8  H    0.000006  -0.000010   0.000000   0.000005  -0.000004   0.000000
     9  H    0.000005  -0.000121   0.000002   0.000002  -0.000054   0.000000
    10  H    0.000000   0.000000   0.000000   0.000000   0.000000   0.000000
    11  C    0.000000   0.000000   0.000000   0.000000   0.000000   0.000000
    12  N    0.000000   0.000000   0.000000   0.000000   0.000000   0.000000
    13  N    0.002831  -0.065921   0.002635   0.001585  -0.050988   0.002286
    14  C   -0.037402   0.269831  -0.036602  -0.045729  -0.089732   0.004254
    15  H    0.002456  -0.047853  -0.000968   0.004407  -0.002243  -0.000124
    16  C   -0.000093  -0.090333   0.003978   0.000573   0.272726  -0.038902
    17  H    0.000003   0.004981  -0.000034   0.000025  -0.037745   0.001268
    18  C   -0.000001   0.000308  -0.000107   0.000743  -0.074383  -0.002102
    19  H    0.000002   0.001753  -0.000013   0.001833  -0.003470   0.000566
    20  H    0.000000  -0.000166   0.000002  -0.000043   0.003911   0.000083
    21  H    0.000000   0.000262   0.000003   0.000066  -0.000687   0.001444
    22  C    0.346614  -0.057613   0.000085  -0.004877   0.005133  -0.000068
    23  H   -0.028543   0.003850  -0.000082   0.000028  -0.000142   0.000001
    24  H   -0.022883  -0.004647   0.000031   0.005420  -0.000067  -0.000003
    25  H    0.553160  -0.002868   0.001567   0.000195  -0.000046  -0.000001
    26  C   -0.002868   5.427050   0.373454   0.369579   0.264268  -0.032535
    27  H    0.001567   0.373454   0.526611  -0.026325  -0.033494   0.000309
    28  H    0.000195   0.369579  -0.026325   0.531320  -0.043698  -0.004051
    29  C   -0.000046   0.264268  -0.033494  -0.043698   5.429223   0.380001
    30  H   -0.000001  -0.032535   0.000309  -0.004051   0.380001   0.516683
    31  H   -0.000002  -0.043866  -0.004096   0.003734   0.368953  -0.028033
             31
     1  C    0.000000
     2  C    0.000000
     3  C    0.000003
     4  C   -0.000193
     5  C    0.000017
     6  C    0.000000
     7  H    0.000000
     8  H    0.000000
     9  H    0.000105
    10  H    0.000000
    11  C    0.000000
    12  N    0.000000
    13  N    0.001260
    14  C    0.001072
    15  H    0.002003
    16  C   -0.039072
    17  H   -0.004526
    18  C    0.003595
    19  H    0.000031
    20  H   -0.000089
    21  H    0.000000
    22  C   -0.000056
    23  H    0.000003
    24  H    0.000002
    25  H   -0.000002
    26  C   -0.043866
    27  H   -0.004096
    28  H    0.003734
    29  C    0.368953
    30  H   -0.028033
    31  H    0.541974
 Mulliken atomic charges:
              1
     1  C    0.003410
     2  C   -0.166395
     3  C   -0.155535
     4  C    0.250549
     5  C   -0.163935
     6  C   -0.164465
     7  H    0.206382
     8  H    0.205137
     9  H    0.197762
    10  H    0.206104
    11  C    0.289231
    12  N   -0.473224
    13  N   -0.634930
    14  C   -0.031791
    15  H    0.175675
    16  C   -0.045674
    17  H    0.191176
    18  C   -0.524113
    19  H    0.193309
    20  H    0.193698
    21  H    0.177480
    22  C   -0.538888
    23  H    0.199852
    24  H    0.196567
    25  H    0.184892
    26  C   -0.374585
    27  H    0.193124
    28  H    0.205354
    29  C   -0.392333
    30  H    0.198985
    31  H    0.197181
 Sum of Mulliken atomic charges =   0.00000
 Mulliken charges with hydrogens summed into heavy atoms:
              1
     1  C    0.003410
     2  C    0.039987
     3  C    0.049602
     4  C    0.250549
     5  C    0.033827
     6  C    0.041639
    11  C    0.289231
    12  N   -0.473224
    13  N   -0.634930
    14  C    0.143884
    16  C    0.145502
    18  C    0.040373
    22  C    0.042423
    26  C    0.023893
    29  C    0.003833
 Sum of Mulliken charges with hydrogens summed into heavy atoms =   0.00000
 Electronic spatial extent (au):  <R**2>=           3848.3350
 Charge=              0.0000 electrons
 Dipole moment (field-independent basis, Debye):
    X=             -4.9835    Y=             -0.1630    Z=             -0.4836  Tot=              5.0095
 Quadrupole moment (field-independent basis, Debye-Ang):
   XX=           -115.9460   YY=            -89.9458   ZZ=            -84.4039
   XY=              0.3270   XZ=              2.5307   YZ=              2.5018
 Traceless Quadrupole moment (field-independent basis, Debye-Ang):
   XX=            -19.1808   YY=              6.8194   ZZ=             12.3614
   XY=              0.3270   XZ=              2.5307   YZ=              2.5018
 Octapole moment (field-independent basis, Debye-Ang**2):
  XXX=           -223.8812  YYY=             -1.4085  ZZZ=             -0.6197  XYY=             -8.5534
  XXY=             -1.3084  XXZ=              5.7048  XZZ=              6.8113  YZZ=              0.0246
  YYZ=             -0.6028  XYZ=              5.5883
 Hexadecapole moment (field-independent basis, Debye-Ang**3):
 XXXX=          -5311.3978 YYYY=           -762.4114 ZZZZ=           -445.7967 XXXY=             -4.9989
 XXXZ=             51.4829 YYYX=              4.0007 YYYZ=             -2.3037 ZZZX=             -1.4196
 ZZZY=             16.5525 XXYY=           -787.9314 XXZZ=           -717.0855 YYZZ=           -207.5178
 XXYZ=             14.7472 YYXZ=              5.1490 ZZXY=              1.4185
 N-N= 9.498790629918D+02 E-N=-3.315795266258D+03  KE= 6.066736001335D+02
 1|1|UNPC-DESKTOP-K2VF0AK|SP|RTD-B3LYP-FC|3-21G|C13H16N2|MELIH|17-Dec-2
 024|0||# td b3lyp/3-21g geom=connectivity||Title Card Required||0,1|C,
 0,2.945451,0.01532,-0.062361|C,0,2.284535,0.869658,0.809364|C,0,0.9045
 34,0.865303,0.86357|C,0,0.163381,0.016831,0.055073|C,0,0.834811,-0.835
 283,-0.815174|C,0,2.212418,-0.840236,-0.87646|H,0,2.850039,1.528063,1.
 437021|H,0,0.381433,1.515444,1.532665|H,0,0.274138,-1.495369,-1.445942
 |H,0,2.724026,-1.498907,-1.548662|C,0,4.372529,0.014038,-0.123227|N,0,
 5.512076,0.012764,-0.172034|N,0,-1.258023,0.043204,0.132268|C,0,-1.969
 04595,-1.20461455,0.49764736|H,0,-1.66709484,-2.03171266,-0.14330699|C
 ,0,-1.99631848,0.80939695,-0.9137108|H,0,-1.42571395,0.8351583,-1.8353
 2377|C,0,-2.24768234,2.23788831,-0.42568448|H,0,-2.83967856,2.21484149
 ,0.48101753|H,0,-1.30858,2.73322321,-0.20770557|H,0,-2.77325445,2.8151
 121,-1.17919169|C,0,-1.72516352,-1.57012049,1.96127352|H,0,-0.67890101
 ,-1.78960193,2.13815328|H,0,-2.01424779,-0.73710265,2.58988126|H,0,-2.
 30685205,-2.44355749,2.23591317|C,0,-3.42550819,-0.82580375,0.18977155
 |H,0,-4.06048419,-1.69474788,0.07809523|H,0,-3.80749347,-0.20839707,0.
 99364032|C,0,-3.30483501,-0.000247,-1.10649588|H,0,-4.15688865,0.64422
 383,-1.27550465|H,0,-3.2058949,-0.66997763,-1.95318563||Version=IA32W-
 G09RevA.02|State=1-A|HF=-611.1478845|RMSD=9.670e-009|PG=C01 [X(C13H16N
 2)]||@


 OF ALL THE WONDERS OF THE UNIVERSE, THE GREATEST IS MAN.

                                    -- ARISTOTLE
 Job cpu time:  0 days  0 hours  5 minutes 49.0 seconds.
 File lengths (MBytes):  RWF=     64 Int=      0 D2E=      0 Chk=      5 Scr=      1
 Normal termination of Gaussian 09 at Tue Dec 17 23:15:28 2024.
