 Entering Link 1 = C:\G09W\l1.exe PID=      3280.
  
 Copyright (c) 1988,1990,1992,1993,1995,1998,2003,2009, Gaussian, Inc.
                  All Rights Reserved.
  
 This is part of the Gaussian(R) 09 program.  It is based on
 the Gaussian(R) 03 system (copyright 2003, Gaussian, Inc.),
 the Gaussian(R) 98 system (copyright 1998, Gaussian, Inc.),
 the Gaussian(R) 94 system (copyright 1995, Gaussian, Inc.),
 the Gaussian 92(TM) system (copyright 1992, Gaussian, Inc.),
 the Gaussian 90(TM) system (copyright 1990, Gaussian, Inc.),
 the Gaussian 88(TM) system (copyright 1988, Gaussian, Inc.),
 the Gaussian 86(TM) system (copyright 1986, Carnegie Mellon
 University), and the Gaussian 82(TM) system (copyright 1983,
 Carnegie Mellon University). Gaussian is a federally registered
 trademark of Gaussian, Inc.
  
 This software contains proprietary and confidential information,
 including trade secrets, belonging to Gaussian, Inc.
  
 This software is provided under written license and may be
 used, copied, transmitted, or stored only in accord with that
 written license.
  
 The following legend is applicable only to US Government
 contracts under FAR:
  
                    RESTRICTED RIGHTS LEGEND
  
 Use, reproduction and disclosure by the US Government is
 subject to restrictions as set forth in subparagraphs (a)
 and (c) of the Commercial Computer Software - Restricted
 Rights clause in FAR 52.227-19.
  
 Gaussian, Inc.
 340 Quinnipiac St., Bldg. 40, Wallingford CT 06492
  
  
 ---------------------------------------------------------------
 Warning -- This program may not be used in any manner that
 competes with the business of Gaussian, Inc. or will provide
 assistance to any competitor of Gaussian, Inc.  The licensee
 of this program is prohibited from giving any competitor of
 Gaussian, Inc. access to this program.  By using this program,
 the user acknowledges that Gaussian, Inc. is engaged in the
 business of creating and licensing software in the field of
 computational chemistry and represents and warrants to the
 licensee that it is not a competitor of Gaussian, Inc. and that
 it will not use this program in any manner prohibited above.
 ---------------------------------------------------------------
  

 Cite this work as:
 Gaussian 09, Revision A.02,
 M. J. Frisch, G. W. Trucks, H. B. Schlegel, G. E. Scuseria, 
 M. A. Robb, J. R. Cheeseman, G. Scalmani, V. Barone, B. Mennucci, 
 G. A. Petersson, H. Nakatsuji, M. Caricato, X. Li, H. P. Hratchian, 
 A. F. Izmaylov, J. Bloino, G. Zheng, J. L. Sonnenberg, M. Hada, 
 M. Ehara, K. Toyota, R. Fukuda, J. Hasegawa, M. Ishida, T. Nakajima, 
 Y. Honda, O. Kitao, H. Nakai, T. Vreven, J. A. Montgomery, Jr., 
 J. E. Peralta, F. Ogliaro, M. Bearpark, J. J. Heyd, E. Brothers, 
 K. N. Kudin, V. N. Staroverov, R. Kobayashi, J. Normand, 
 K. Raghavachari, A. Rendell, J. C. Burant, S. S. Iyengar, J. Tomasi, 
 M. Cossi, N. Rega, J. M. Millam, M. Klene, J. E. Knox, J. B. Cross, 
 V. Bakken, C. Adamo, J. Jaramillo, R. Gomperts, R. E. Stratmann, 
 O. Yazyev, A. J. Austin, R. Cammi, C. Pomelli, J. W. Ochterski, 
 R. L. Martin, K. Morokuma, V. G. Zakrzewski, G. A. Voth, 
 P. Salvador, J. J. Dannenberg, S. Dapprich, A. D. Daniels, 
 O. Farkas, J. B. Foresman, J. V. Ortiz, J. Cioslowski, 
 and D. J. Fox, Gaussian, Inc., Wallingford CT, 2009.
 
 ******************************************
 Gaussian 09:  IA32W-G09RevA.02 11-Jun-2009
                25-Dec-2024 
 ******************************************
 %chk=C:\G09W\Hw5\energy160.chk
 ----------------------------------
 # td b3lyp/3-21g geom=connectivity
 ----------------------------------
 1/38=1,57=2/1;
 2/12=2,17=6,18=5,40=1/2;
 3/5=5,11=2,16=1,25=1,30=1,74=-5/1,2,8,3;
 4//1;
 5/5=2,38=5/2;
 8/6=1,10=1/1;
 9/42=1/14;
 6/7=2,8=2,9=2,10=2/1;
 99/5=1,9=1/99;
 -------------------
 Title Card Required
 -------------------
 Symbolic Z-matrix:
 Charge =  0 Multiplicity = 1
 C                    -2.94453  -0.03717  -0.05158 
 C                    -2.22918  -1.2261   -0.01523 
 C                    -0.85001  -1.19799   0.0515 
 C                    -0.16351   0.00646   0.08157 
 C                    -0.88924   1.19229   0.04453 
 C                    -2.26657   1.17588  -0.0207 
 H                    -2.75228  -2.16049  -0.03819 
 H                    -0.2854   -2.10584   0.08362 
 H                    -0.3711    2.12984   0.06636 
 H                    -2.82015   2.09251  -0.04885 
 C                    -4.37111  -0.05875  -0.11997 
 N                    -5.51027  -0.07566  -0.17455 
 N                     1.25884  -0.00154   0.14396 
 C                     1.99194   1.21096  -0.29024 
 H                     1.6856    1.5196   -1.28874 
 C                     1.9653   -1.24828  -0.27166 
 H                     1.37448  -1.79108  -1.00099 
 C                     2.21084  -2.13428   0.95172 
 H                     2.82269  -1.60281   1.67024 
 H                     1.27109  -2.39065   1.42704 
 H                     2.71319  -3.05286   0.66705 
 C                     1.78425   2.36265   0.69248 
 H                     0.74468   2.66698   0.72084 
 H                     2.07739   2.04231   1.6845 
 H                     2.38178   3.22046   0.40301 
 C                     3.4369    0.69188  -0.33742 
 H                     4.07922   1.32087  -0.93952 
 H                     3.82921   0.64673   0.67123 
 C                     3.27851  -0.72944  -0.9129 
 H                     4.11922  -1.37107  -0.68615 
 H                     3.16883  -0.67273  -1.98992 
 
                          Input orientation:                          
 ---------------------------------------------------------------------
 Center     Atomic      Atomic             Coordinates (Angstroms)
 Number     Number       Type             X           Y           Z
 ---------------------------------------------------------------------
      1          6           0       -2.944533   -0.037170   -0.051577
      2          6           0       -2.229182   -1.226103   -0.015226
      3          6           0       -0.850009   -1.197991    0.051503
      4          6           0       -0.163512    0.006458    0.081570
      5          6           0       -0.889235    1.192290    0.044527
      6          6           0       -2.266573    1.175879   -0.020699
      7          1           0       -2.752279   -2.160494   -0.038189
      8          1           0       -0.285399   -2.105841    0.083616
      9          1           0       -0.371099    2.129836    0.066357
     10          1           0       -2.820149    2.092507   -0.048852
     11          6           0       -4.371107   -0.058748   -0.119969
     12          7           0       -5.510267   -0.075658   -0.174552
     13          7           0        1.258841   -0.001536    0.143955
     14          6           0        1.991941    1.210958   -0.290244
     15          1           0        1.685597    1.519595   -1.288735
     16          6           0        1.965304   -1.248282   -0.271662
     17          1           0        1.374477   -1.791076   -1.000991
     18          6           0        2.210837   -2.134279    0.951720
     19          1           0        2.822692   -1.602812    1.670241
     20          1           0        1.271088   -2.390654    1.427038
     21          1           0        2.713190   -3.052859    0.667045
     22          6           0        1.784248    2.362646    0.692484
     23          1           0        0.744682    2.666981    0.720839
     24          1           0        2.077392    2.042314    1.684497
     25          1           0        2.381777    3.220460    0.403005
     26          6           0        3.436897    0.691880   -0.337415
     27          1           0        4.079220    1.320869   -0.939515
     28          1           0        3.829211    0.646726    0.671227
     29          6           0        3.278513   -0.729438   -0.912903
     30          1           0        4.119224   -1.371067   -0.686145
     31          1           0        3.168825   -0.672725   -1.989917
 ---------------------------------------------------------------------
                    Distance matrix (angstroms):
                    1          2          3          4          5
     1  C    0.000000
     2  C    1.388024   0.000000
     3  C    2.396907   1.381072   0.000000
     4  C    2.784548   2.407399   1.386679   0.000000
     5  C    2.396885   2.765439   2.390613   1.390771   0.000000
     6  C    1.389990   2.402279   2.765344   2.408500   1.378979
     7  H    2.132052   1.071095   2.133797   3.378126   3.836526
     8  H    3.371746   2.135884   1.069583   2.115814   3.353180
     9  H    3.366361   3.836855   3.362143   2.133555   1.071417
    10  H    2.133308   3.370986   3.836522   3.380286   2.132496
    11  C    1.428375   2.441625   3.704782   4.212924   3.703456
    12  N    2.568968   3.480579   4.798827   5.353516   4.796835
    13  N    4.208070   3.700163   2.426376   1.423743   2.459540
    14  C    5.097407   4.881883   3.741190   2.497007   2.900620
    15  H    5.039065   4.948351   3.951052   2.754364   2.917957
    16  C    5.061791   4.202376   2.834246   2.496198   3.768920
    17  H    4.757249   3.778530   2.531369   2.601630   3.888184
    18  C    5.655291   4.633955   3.325027   3.313223   4.636756
    19  H    6.219066   5.338927   4.033971   3.745803   4.922798
    20  H    5.049421   3.960833   2.795281   3.100727   4.406339
    21  H    6.451405   5.313151   4.063965   4.240002   5.602346
    22  C    5.354822   5.430248   4.475299   3.117468   2.989497
    23  H    4.638897   4.953964   4.234272   2.883030   2.302563
    24  H    5.705956   5.667291   4.662180   3.425746   3.494699
    25  H    6.260062   6.419329   5.485499   4.112375   3.865424
    26  C    6.429297   5.990569   4.701110   3.688942   4.371694
    27  H    7.208732   6.865662   5.623528   4.557528   5.066598
    28  H    6.846442   6.378309   5.067755   4.086499   4.791046
    29  C    6.320397   5.602428   4.265479   3.657602   4.688266
    30  H    7.216552   6.385406   5.026665   4.563857   5.673565
    31  H    6.444706   5.774436   4.538097   3.982062   4.907657
                    6          7          8          9         10
     6  C    0.000000
     7  H    3.371587   0.000000
     8  H    3.834791   2.470490   0.000000
     9  H    2.123778   4.907940   4.236579   0.000000
    10  H    1.071189   4.253556   4.905979   2.452043   0.000000
    11  C    2.441971   2.654172   4.574390   4.563407   2.653003
    12  N    3.480168   3.460005   5.611376   5.597615   3.457380
    13  N    3.720479   4.558877   2.610827   2.684301   4.589156
    14  C    4.267180   5.825620   4.040694   2.560363   4.898123
    15  H    4.164817   5.899293   4.348788   2.537453   4.708215
    16  C    4.883474   4.810637   2.434603   4.121252   5.840469
    17  H    4.798025   4.253654   2.007645   4.422648   5.795142
    18  C    5.652428   5.060941   2.643030   5.062898   6.646630
    19  H    6.039952   5.857478   3.525712   5.167727   6.960770
    20  H    5.227920   4.288047   2.075705   4.998306   6.246215
    21  H    6.569114   5.582564   3.198245   6.060857   7.589805
    22  C    4.280911   6.447694   4.962009   2.256492   4.671512
    23  H    3.441064   6.009108   4.924119   1.400657   3.691946
    24  H    4.746413   6.630005   5.035156   2.936179   5.195472
    25  H    5.095782   7.450359   5.965343   2.980121   5.341955
    26  C    5.732725   6.821398   4.675468   4.090426   6.418384
    27  H    6.413605   7.720211   5.642609   4.633740   6.999286
    28  H    6.157706   7.190255   4.985171   4.495341   6.842718
    29  C    5.930787   6.259672   3.948291   4.738572   6.775222
    30  H    6.907109   6.946985   4.531350   5.743308   7.781863
    31  H    6.069490   6.409538   4.276099   4.961217   6.876195
                   11         12         13         14         15
    11  C    0.000000
    12  N    1.140592   0.000000
    13  N    5.636421   6.777003   0.000000
    14  C    6.490726   7.612614   1.481926   0.000000
    15  H    6.367169   7.454307   2.132736   1.089077   0.000000
    16  C    6.448884   7.567605   1.492047   2.459454   2.962063
    17  H    6.065385   7.143204   2.127610   3.146209   3.337684
    18  C    6.984149   8.069811   2.471310   3.575053   4.318137
    19  H    7.572300   8.670275   2.709108   3.528590   4.449489
    20  H    6.298046   7.342416   2.711888   4.054663   4.778838
    21  H    7.731194   8.786197   3.420428   4.429079   5.078224
    22  C    6.664205   7.739963   2.483202   1.528161   2.155388
    23  H    5.857291   6.888264   2.778154   2.167475   2.498040
    24  H    7.018098   8.094099   2.687121   2.144308   3.044150
    25  H    7.525168   8.572183   3.421893   2.161172   2.497918
    26  C    7.847015   8.981502   2.335909   1.536088   2.158049
    27  H    8.601339   9.720788   3.298060   2.188691   2.427113
    28  H    8.268549   9.405479   2.702788   2.149034   3.032892
    29  C    7.719796   8.843938   2.392878   2.410002   2.781507
    30  H    8.609788   9.729692   3.278181   3.368816   3.826432
    31  H    7.792576   8.886995   2.941419   2.796821   2.738227
                   16         17         18         19         20
    16  C    0.000000
    17  H    1.084261   0.000000
    18  C    1.530340   2.151829   0.000000
    19  H    2.152160   3.044380   1.083096   0.000000
    20  H    2.161604   2.503100   1.083874   1.757076   0.000000
    21  H    2.167257   2.483263   1.084983   1.766643   1.759478
    22  C    3.741812   4.504351   4.524546   4.214170   4.837020
    23  H    4.219510   4.820333   5.025437   4.842584   5.133760
    24  H    3.829771   4.732950   4.242487   3.720567   4.513050
    25  H    4.538533   5.301071   5.385493   5.006420   5.810927
    26  C    2.436009   3.295297   3.339501   3.110232   4.160053
    27  H    3.393406   4.123544   4.359550   4.115532   5.221262
    28  H    2.820327   3.842514   3.229830   2.659235   4.042390
    29  C    1.550776   2.181785   2.567164   2.764632   3.502102
    30  H    2.196871   2.794490   2.628124   2.699492   3.690119
    31  H    2.175346   2.334174   3.421565   3.792311   4.269457
                   21         22         23         24         25
    21  H    0.000000
    22  C    5.494659   0.000000
    23  H    6.049338   1.083569   0.000000
    24  H    5.234523   1.082883   1.759250   0.000000
    25  H    6.287613   1.084751   1.757111   1.767173   0.000000
    26  C    3.944079   2.565814   3.502706   2.785687   2.838171
    27  H    4.855571   3.002602   3.960800   3.378348   2.879604
    28  H    3.864253   2.669589   3.687575   2.458303   2.964981
    29  C    2.866027   3.790921   4.541484   3.983941   4.258808
    30  H    2.576136   4.614471   5.447290   4.630355   5.028627
    31  H    3.596121   4.280865   4.937439   4.697231   4.637069
                   26         27         28         29         30
    26  C    0.000000
    27  H    1.082003   0.000000
    28  H    1.083193   1.763934   0.000000
    29  C    1.541563   2.201272   2.169462   0.000000
    30  H    2.200667   2.704129   2.449093   1.081620   0.000000
    31  H    2.159808   2.430346   3.042819   1.084070   1.758056
                   31
    31  H    0.000000
 Stoichiometry    C13H16N2
 Framework group  C1[X(C13H16N2)]
 Deg. of freedom    87
 Full point group                 C1      NOp   1
 Largest Abelian subgroup         C1      NOp   1
 Largest concise Abelian subgroup C1      NOp   1
                         Standard orientation:                         
 ---------------------------------------------------------------------
 Center     Atomic      Atomic             Coordinates (Angstroms)
 Number     Number       Type             X           Y           Z
 ---------------------------------------------------------------------
      1          6           0       -2.944533   -0.037170   -0.051577
      2          6           0       -2.229182   -1.226103   -0.015226
      3          6           0       -0.850009   -1.197991    0.051503
      4          6           0       -0.163512    0.006458    0.081570
      5          6           0       -0.889235    1.192290    0.044527
      6          6           0       -2.266573    1.175879   -0.020699
      7          1           0       -2.752279   -2.160494   -0.038189
      8          1           0       -0.285399   -2.105841    0.083616
      9          1           0       -0.371099    2.129836    0.066357
     10          1           0       -2.820149    2.092507   -0.048852
     11          6           0       -4.371107   -0.058748   -0.119969
     12          7           0       -5.510267   -0.075658   -0.174552
     13          7           0        1.258841   -0.001536    0.143955
     14          6           0        1.991941    1.210958   -0.290244
     15          1           0        1.685597    1.519595   -1.288735
     16          6           0        1.965304   -1.248282   -0.271662
     17          1           0        1.374477   -1.791076   -1.000991
     18          6           0        2.210837   -2.134279    0.951720
     19          1           0        2.822692   -1.602812    1.670241
     20          1           0        1.271088   -2.390654    1.427038
     21          1           0        2.713190   -3.052859    0.667045
     22          6           0        1.784248    2.362646    0.692484
     23          1           0        0.744682    2.666981    0.720839
     24          1           0        2.077392    2.042314    1.684497
     25          1           0        2.381777    3.220460    0.403005
     26          6           0        3.436897    0.691880   -0.337415
     27          1           0        4.079220    1.320869   -0.939515
     28          1           0        3.829211    0.646726    0.671227
     29          6           0        3.278513   -0.729438   -0.912903
     30          1           0        4.119224   -1.371067   -0.686145
     31          1           0        3.168825   -0.672725   -1.989917
 ---------------------------------------------------------------------
 Rotational constants (GHZ):      1.4226229      0.3293285      0.2818308
 Standard basis: 3-21G (6D, 7F)
 There are   167 symmetry adapted basis functions of A   symmetry.
 Integral buffers will be    262144 words long.
 Raffenetti 2 integral format.
 Two-electron integral symmetry is turned on.
   167 basis functions,   273 primitive gaussians,   167 cartesian basis functions
    54 alpha electrons       54 beta electrons
       nuclear repulsion energy       953.8287319060 Hartrees.
 NAtoms=   31 NActive=   31 NUniq=   31 SFac= 7.50D-01 NAtFMM=   80 NAOKFM=F Big=F
 One-electron integrals computed using PRISM.
 NBasis=   167 RedAO= T  NBF=   167
 NBsUse=   167 1.00D-06 NBFU=   167
 Harris functional with IExCor=  402 diagonalized for initial guess.
 ExpMin= 1.83D-01 ExpMax= 2.43D+02 ExpMxC= 2.43D+02 IAcc=1 IRadAn=         1 AccDes= 0.00D+00
 HarFok:  IExCor=  402 AccDes= 0.00D+00 IRadAn=         1 IDoV= 1
 ScaDFX=  1.000000  1.000000  1.000000  1.000000
 FoFCou: FMM=F IPFlag=           0 FMFlag=      100000 FMFlg1=           0
         NFxFlg=           0 DoJE=T BraDBF=F KetDBF=T FulRan=T
         Omega=  0.000000  0.000000  1.000000  0.000000  0.000000 ICntrl=     500 IOpCl=  0
         NMat0=    1 NMatS0=    1 NMatT0=    0 NMatD0=    1 NMtDS0=    0 NMtDT0=    0
         I1Cent=           4 NGrid=           0.
 Petite list used in FoFCou.
 Initial guess orbital symmetries:
       Occupied  (A) (A) (A) (A) (A) (A) (A) (A) (A) (A) (A) (A)
                 (A) (A) (A) (A) (A) (A) (A) (A) (A) (A) (A) (A)
                 (A) (A) (A) (A) (A) (A) (A) (A) (A) (A) (A) (A)
                 (A) (A) (A) (A) (A) (A) (A) (A) (A) (A) (A) (A)
                 (A) (A) (A) (A) (A) (A)
       Virtual   (A) (A) (A) (A) (A) (A) (A) (A) (A) (A) (A) (A)
                 (A) (A) (A) (A) (A) (A) (A) (A) (A) (A) (A) (A)
                 (A) (A) (A) (A) (A) (A) (A) (A) (A) (A) (A) (A)
                 (A) (A) (A) (A) (A) (A) (A) (A) (A) (A) (A) (A)
                 (A) (A) (A) (A) (A) (A) (A) (A) (A) (A) (A) (A)
                 (A) (A) (A) (A) (A) (A) (A) (A) (A) (A) (A) (A)
                 (A) (A) (A) (A) (A) (A) (A) (A) (A) (A) (A) (A)
                 (A) (A) (A) (A) (A) (A) (A) (A) (A) (A) (A) (A)
                 (A) (A) (A) (A) (A) (A) (A) (A) (A) (A) (A) (A)
                 (A) (A) (A) (A) (A)
 The electronic state of the initial guess is 1-A.
 Requested convergence on RMS density matrix=1.00D-08 within 128 cycles.
 Requested convergence on MAX density matrix=1.00D-06.
 Requested convergence on             energy=1.00D-06.
 No special actions if energy rises.
 Integral accuracy reduced to 1.0D-05 until final iterations.
 Initial convergence to 1.0D-05 achieved.  Increase integral accuracy.
 SCF Done:  E(RB3LYP) =  -611.142040736     A.U. after   16 cycles
             Convg  =    0.4298D-08             -V/T =  2.0073
 ExpMin= 1.83D-01 ExpMax= 2.43D+02 ExpMxC= 2.43D+02 IAcc=1 IRadAn=         1 AccDes= 0.00D+00
 HarFok:  IExCor=  205 AccDes= 0.00D+00 IRadAn=         1 IDoV=-2
 ScaDFX=  1.000000  1.000000  1.000000  1.000000
 Range of M.O.s used for correlation:    16   167
 NBasis=   167 NAE=    54 NBE=    54 NFC=    15 NFV=     0
 NROrb=    152 NOA=    39 NOB=    39 NVA=   113 NVB=   113
 Would need an additional   268100000 words for in-memory AO integral storage.
 Orbital symmetries:
       Occupied  (A) (A) (A) (A) (A) (A) (A) (A) (A) (A) (A) (A)
                 (A) (A) (A) (A) (A) (A) (A) (A) (A) (A) (A) (A)
                 (A) (A) (A) (A) (A) (A) (A) (A) (A) (A) (A) (A)
                 (A) (A) (A) (A) (A) (A) (A) (A) (A) (A) (A) (A)
                 (A) (A) (A) (A) (A) (A)
       Virtual   (A) (A) (A) (A) (A) (A) (A) (A) (A) (A) (A) (A)
                 (A) (A) (A) (A) (A) (A) (A) (A) (A) (A) (A) (A)
                 (A) (A) (A) (A) (A) (A) (A) (A) (A) (A) (A) (A)
                 (A) (A) (A) (A) (A) (A) (A) (A) (A) (A) (A) (A)
                 (A) (A) (A) (A) (A) (A) (A) (A) (A) (A) (A) (A)
                 (A) (A) (A) (A) (A) (A) (A) (A) (A) (A) (A) (A)
                 (A) (A) (A) (A) (A) (A) (A) (A) (A) (A) (A) (A)
                 (A) (A) (A) (A) (A) (A) (A) (A) (A) (A) (A) (A)
                 (A) (A) (A) (A) (A) (A) (A) (A) (A) (A) (A) (A)
                 (A) (A) (A) (A) (A)
    12 initial guesses have been made.
 Convergence on wavefunction:    0.001000000000000
 Iteration     1 Dimension    12 NMult    12
 CISAX will form    12 AO SS matrices at one time.
 New state      1 was old state      2
 New state      2 was old state      1
 Iteration     2 Dimension    18 NMult    18
 Iteration     3 Dimension    24 NMult    24
 Iteration     4 Dimension    30 NMult    30
 Iteration     5 Dimension    34 NMult    34
 Iteration     6 Dimension    36 NMult    36
 ***********************************************************************
 Excited states from <AA,BB:AA,BB> singles matrix:
 ***********************************************************************
 
 Ground to excited state transition electric dipole moments (Au):
       state          X           Y           Z        Dip. S.      Osc.
         1         0.0603     -0.3992     -0.0144      0.1632      0.0186
         2         2.0402      0.0182      0.0134      4.1630      0.4990
         3         0.0269      0.4806      0.0064      0.2318      0.0347
 Ground to excited state transition velocity dipole moments (Au):
       state          X           Y           Z        Dip. S.      Osc.
         1        -0.0077      0.0589      0.0038      0.0035      0.0138
         2        -0.2992     -0.0045      0.0047      0.0895      0.3319
         3        -0.0054     -0.0891     -0.0022      0.0080      0.0236
 Ground to excited state transition magnetic dipole moments (Au):
       state          X           Y           Z
         1         0.0351     -0.0007     -0.7846
         2         0.0136     -0.0494     -0.0060
         3        -0.0245     -0.0024      0.4875
 <0|del|b> * <b|rxdel|0> + <0|del|b> * <b|delr+rdel|0>
 Rotatory Strengths (R) in cgs (10**-40 erg-esu-cm/Gauss)
       state          XX          YY          ZZ    R(velocity)
         1        -9.0086     -5.6283      1.1386     -4.4994
 Total R(velocity) tensor for State=          1
                 1             2             3 
      1  -0.900864D+01 -0.526130D+00 -0.101454D+02
      2  -0.324188D+01 -0.562829D+01  0.816613D+02
      3  -0.769138D+00 -0.172734D+00  0.113864D+01
 R(velocity) tensor in inp. orien. for State=          1
                 1             2             3 
      1  -0.900864D+01 -0.526131D+00 -0.101454D+02
      2  -0.324188D+01 -0.562829D+01  0.816613D+02
      3  -0.769138D+00 -0.172734D+00  0.113864D+01
         2         1.6828    -26.2517      9.3862     -5.0609
 Total R(velocity) tensor for State=          2
                 1             2             3 
      1   0.168285D+01 -0.994269D+02  0.118480D+02
      2  -0.241036D+01 -0.262517D+02 -0.178382D+03
      3  -0.802503D+00  0.631254D+02  0.938619D+01
 R(velocity) tensor in inp. orien. for State=          2
                 1             2             3 
      1   0.168285D+01 -0.994269D+02  0.118480D+02
      2  -0.241036D+01 -0.262517D+02 -0.178382D+03
      3  -0.802506D+00  0.631254D+02  0.938619D+01
         3        -4.3051     -0.5727      2.5254     -0.7842
 Total R(velocity) tensor for State=          3
                 1             2             3 
      1  -0.430515D+01  0.152868D+00  0.424669D+01
      2  -0.610911D+00 -0.572715D+00  0.241869D+02
      3  -0.187103D+01  0.493053D-01  0.252536D+01
 R(velocity) tensor in inp. orien. for State=          3
                 1             2             3 
      1  -0.430515D+01  0.152867D+00  0.424668D+01
      2  -0.610911D+00 -0.572715D+00  0.241869D+02
      3  -0.187103D+01  0.493052D-01  0.252536D+01
 1/2[<0|r|b>*<b|rxdel|0> + (<0|rxdel|b>*<b|r|0>)*]
 Rotatory Strengths (R) in cgs (10**-40 erg-esu-cm/Gauss)
       state          XX          YY          ZZ     R(length)     R(au)
         1        -1.4969     -0.2075     -7.9713     -3.2252     -0.0068
         2       -19.5572      0.6347      0.0565     -6.2887     -0.0133
         3         0.4660      0.8220     -2.2230     -0.3117     -0.0007
  1/2[<0|del|b>*<b|r|0> + (<0|r|b>*<b|del|0>)*] (Au)
       state          X           Y           Z        Dip. S.   Osc.(frdel)
         1        -0.0005     -0.0235     -0.0001      0.0240      0.0160
         2        -0.6103     -0.0001      0.0001      0.6104      0.4069
         3        -0.0001     -0.0428      0.0000      0.0430      0.0286
 Ground to excited state transition densities written to RWF  633

 Excitation energies and oscillator strengths:
 
 Excited State   1:      Singlet-A      4.6480 eV  266.75 nm  f=0.0186  <S**2>=0.000
      53 -> 55         0.19462
      54 -> 56         0.67712
 This state for optimization and/or second-order correction.
 Copying the excited state density for this state as the 1-particle RhoCI density.
 
 Excited State   2:      Singlet-A      4.8930 eV  253.39 nm  f=0.4990  <S**2>=0.000
      53 -> 56        -0.10881
      54 -> 55         0.69293
 
 Excited State   3:      Singlet-A      6.1101 eV  202.92 nm  f=0.0347  <S**2>=0.000
      52 -> 56        -0.40313
      53 -> 55         0.55781
      54 -> 56        -0.14669
 SavETr:  write IOETrn=   770 NScale= 10 NData=  16 NLR=1 LETran=      62.

 **********************************************************************

            Population analysis using the SCF density.

 **********************************************************************

 Orbital symmetries:
       Occupied  (A) (A) (A) (A) (A) (A) (A) (A) (A) (A) (A) (A)
                 (A) (A) (A) (A) (A) (A) (A) (A) (A) (A) (A) (A)
                 (A) (A) (A) (A) (A) (A) (A) (A) (A) (A) (A) (A)
                 (A) (A) (A) (A) (A) (A) (A) (A) (A) (A) (A) (A)
                 (A) (A) (A) (A) (A) (A)
       Virtual   (A) (A) (A) (A) (A) (A) (A) (A) (A) (A) (A) (A)
                 (A) (A) (A) (A) (A) (A) (A) (A) (A) (A) (A) (A)
                 (A) (A) (A) (A) (A) (A) (A) (A) (A) (A) (A) (A)
                 (A) (A) (A) (A) (A) (A) (A) (A) (A) (A) (A) (A)
                 (A) (A) (A) (A) (A) (A) (A) (A) (A) (A) (A) (A)
                 (A) (A) (A) (A) (A) (A) (A) (A) (A) (A) (A) (A)
                 (A) (A) (A) (A) (A) (A) (A) (A) (A) (A) (A) (A)
                 (A) (A) (A) (A) (A) (A) (A) (A) (A) (A) (A) (A)
                 (A) (A) (A) (A) (A) (A) (A) (A) (A) (A) (A) (A)
                 (A) (A) (A) (A) (A)
 The electronic state is 1-A.
 Alpha  occ. eigenvalues --  -14.27584 -14.23339 -10.17921 -10.16953 -10.16905
 Alpha  occ. eigenvalues --  -10.15651 -10.14504 -10.14257 -10.14207 -10.13230
 Alpha  occ. eigenvalues --  -10.13130 -10.13083 -10.12927 -10.11686 -10.11512
 Alpha  occ. eigenvalues --   -0.96511  -0.92216  -0.87955  -0.81519  -0.80009
 Alpha  occ. eigenvalues --   -0.76567  -0.75576  -0.72799  -0.66228  -0.64855
 Alpha  occ. eigenvalues --   -0.64195  -0.59077  -0.58035  -0.56963  -0.53625
 Alpha  occ. eigenvalues --   -0.50051  -0.48676  -0.47375  -0.47071  -0.45228
 Alpha  occ. eigenvalues --   -0.43533  -0.43023  -0.41781  -0.41153  -0.40566
 Alpha  occ. eigenvalues --   -0.39753  -0.38790  -0.38073  -0.37861  -0.35536
 Alpha  occ. eigenvalues --   -0.34955  -0.34387  -0.34081  -0.33677  -0.33095
 Alpha  occ. eigenvalues --   -0.32388  -0.28459  -0.26781  -0.20580
 Alpha virt. eigenvalues --   -0.01839  -0.00812   0.06572   0.09051   0.10292
 Alpha virt. eigenvalues --    0.10847   0.12124   0.12470   0.13361   0.14981
 Alpha virt. eigenvalues --    0.15595   0.16149   0.16983   0.17988   0.18581
 Alpha virt. eigenvalues --    0.18801   0.20108   0.20275   0.20519   0.20812
 Alpha virt. eigenvalues --    0.21804   0.23367   0.23758   0.25143   0.26303
 Alpha virt. eigenvalues --    0.26743   0.28445   0.28942   0.31346   0.33645
 Alpha virt. eigenvalues --    0.36513   0.37372   0.39481   0.40126   0.52156
 Alpha virt. eigenvalues --    0.54964   0.60784   0.64012   0.66258   0.66441
 Alpha virt. eigenvalues --    0.67484   0.68746   0.69763   0.70875   0.71221
 Alpha virt. eigenvalues --    0.71865   0.72779   0.73502   0.75167   0.76259
 Alpha virt. eigenvalues --    0.77195   0.77957   0.78504   0.78998   0.79714
 Alpha virt. eigenvalues --    0.80483   0.81555   0.84710   0.86737   0.87930
 Alpha virt. eigenvalues --    0.88958   0.90620   0.93098   0.94288   0.94736
 Alpha virt. eigenvalues --    0.96315   0.96889   0.99349   1.00304   1.01284
 Alpha virt. eigenvalues --    1.02580   1.04591   1.05959   1.07333   1.07622
 Alpha virt. eigenvalues --    1.08207   1.10109   1.10405   1.12094   1.13559
 Alpha virt. eigenvalues --    1.14692   1.16790   1.17644   1.19526   1.21738
 Alpha virt. eigenvalues --    1.23138   1.24725   1.28790   1.30410   1.31675
 Alpha virt. eigenvalues --    1.33135   1.34836   1.41771   1.43717   1.49610
 Alpha virt. eigenvalues --    1.51832   1.52389   1.54667   1.54992   1.61650
 Alpha virt. eigenvalues --    1.74696   1.77964   1.79538   1.90746   1.92371
 Alpha virt. eigenvalues --    1.97719   2.02328   2.19122   2.31887   2.42070
 Alpha virt. eigenvalues --    2.51613   3.00758   3.04699
          Condensed to atoms (all electrons):
              1          2          3          4          5          6
     1  C    5.443283   0.450993  -0.086582  -0.031538  -0.088056   0.447839
     2  C    0.450993   5.118223   0.450879  -0.059233  -0.034106  -0.054388
     3  C   -0.086582   0.450879   5.220760   0.408338  -0.057881  -0.034992
     4  C   -0.031538  -0.059233   0.408338   4.943677   0.404911  -0.056492
     5  C   -0.088056  -0.034106  -0.057881   0.404911   5.254674   0.453705
     6  C    0.447839  -0.054388  -0.034992  -0.056492   0.453705   5.114753
     7  H   -0.042782   0.396870  -0.035182   0.004085  -0.000160   0.003802
     8  H    0.004401  -0.037117   0.390109  -0.051345   0.004475  -0.000201
     9  H    0.004536  -0.000177   0.004337  -0.054840   0.378813  -0.036629
    10  H   -0.042903   0.003793  -0.000156   0.004065  -0.035300   0.397378
    11  C    0.068768  -0.077187   0.004573  -0.000103   0.004687  -0.076263
    12  N   -0.118983  -0.000703  -0.000006   0.000000  -0.000006  -0.000693
    13  N   -0.000370   0.004502  -0.056566   0.289233  -0.054367   0.004170
    14  C    0.000013  -0.000116   0.001712  -0.062046  -0.001144   0.000102
    15  H   -0.000006  -0.000007   0.000451  -0.001071   0.003932  -0.000127
    16  C    0.000008   0.000234  -0.007966  -0.064836   0.001810  -0.000105
    17  H   -0.000014  -0.000151   0.003956  -0.002092   0.000517  -0.000019
    18  C   -0.000003   0.000069  -0.004552   0.000020  -0.000109   0.000003
    19  H    0.000000  -0.000001   0.000041   0.000159   0.000003   0.000000
    20  H    0.000000   0.000029   0.000830   0.000714  -0.000010  -0.000001
    21  H    0.000000  -0.000001   0.000008  -0.000022   0.000001   0.000000
    22  C   -0.000019   0.000005  -0.000167  -0.000802  -0.028191   0.000525
    23  H   -0.000016  -0.000001  -0.000059  -0.000334  -0.009772   0.000754
    24  H    0.000001   0.000000   0.000001   0.000480   0.000502  -0.000025
    25  H    0.000000   0.000000   0.000002   0.000019   0.000400  -0.000007
    26  C    0.000000   0.000001  -0.000133   0.004820   0.000000   0.000000
    27  H    0.000000   0.000000   0.000001  -0.000077   0.000006   0.000000
    28  H    0.000000   0.000000   0.000002  -0.000106  -0.000007   0.000000
    29  C    0.000000  -0.000004   0.000193   0.004662  -0.000095   0.000001
    30  H    0.000000   0.000000  -0.000001  -0.000064   0.000000   0.000000
    31  H    0.000000   0.000000   0.000015  -0.000157   0.000000   0.000000
              7          8          9         10         11         12
     1  C   -0.042782   0.004401   0.004536  -0.042903   0.068768  -0.118983
     2  C    0.396870  -0.037117  -0.000177   0.003793  -0.077187  -0.000703
     3  C   -0.035182   0.390109   0.004337  -0.000156   0.004573  -0.000006
     4  C    0.004085  -0.051345  -0.054840   0.004065  -0.000103   0.000000
     5  C   -0.000160   0.004475   0.378813  -0.035300   0.004687  -0.000006
     6  C    0.003802  -0.000201  -0.036629   0.397378  -0.076263  -0.000693
     7  H    0.481744  -0.003933   0.000002  -0.000053  -0.006309  -0.000094
     8  H   -0.003933   0.494157  -0.000046   0.000002  -0.000078   0.000000
     9  H    0.000002  -0.000046   0.500441  -0.004019  -0.000093   0.000000
    10  H   -0.000053   0.000002  -0.004019   0.481923  -0.006124  -0.000088
    11  C   -0.006309  -0.000078  -0.000093  -0.006124   4.958059   0.850448
    12  N   -0.000094   0.000000   0.000000  -0.000088   0.850448   6.754160
    13  N   -0.000016  -0.008571  -0.007196  -0.000014   0.000000   0.000000
    14  C    0.000001   0.000008   0.001615  -0.000004   0.000000   0.000000
    15  H    0.000000   0.000006   0.001466  -0.000001   0.000000   0.000000
    16  C   -0.000002   0.000837  -0.000022   0.000000   0.000000   0.000000
    17  H    0.000001   0.002875   0.000013   0.000000   0.000000   0.000000
    18  C    0.000002  -0.001066  -0.000005   0.000000   0.000000   0.000000
    19  H    0.000000  -0.000032   0.000000   0.000000   0.000000   0.000000
    20  H   -0.000004   0.005279   0.000000   0.000000   0.000000   0.000000
    21  H    0.000000   0.000272   0.000000   0.000000   0.000000   0.000000
    22  C    0.000000  -0.000003  -0.007962   0.000025   0.000000   0.000000
    23  H    0.000000  -0.000001   0.017588   0.000013   0.000000   0.000000
    24  H    0.000000   0.000000  -0.000120   0.000000   0.000000   0.000000
    25  H    0.000000   0.000000   0.000773   0.000000   0.000000   0.000000
    26  C    0.000000  -0.000007   0.000038   0.000000   0.000000   0.000000
    27  H    0.000000   0.000000   0.000003   0.000000   0.000000   0.000000
    28  H    0.000000   0.000000  -0.000001   0.000000   0.000000   0.000000
    29  C    0.000000   0.000171  -0.000012   0.000000   0.000000   0.000000
    30  H    0.000000   0.000001   0.000000   0.000000   0.000000   0.000000
    31  H    0.000000  -0.000009   0.000000   0.000000   0.000000   0.000000
             13         14         15         16         17         18
     1  C   -0.000370   0.000013  -0.000006   0.000008  -0.000014  -0.000003
     2  C    0.004502  -0.000116  -0.000007   0.000234  -0.000151   0.000069
     3  C   -0.056566   0.001712   0.000451  -0.007966   0.003956  -0.004552
     4  C    0.289233  -0.062046  -0.001071  -0.064836  -0.002092   0.000020
     5  C   -0.054367  -0.001144   0.003932   0.001810   0.000517  -0.000109
     6  C    0.004170   0.000102  -0.000127  -0.000105  -0.000019   0.000003
     7  H   -0.000016   0.000001   0.000000  -0.000002   0.000001   0.000002
     8  H   -0.008571   0.000008   0.000006   0.000837   0.002875  -0.001066
     9  H   -0.007196   0.001615   0.001466  -0.000022   0.000013  -0.000005
    10  H   -0.000014  -0.000004  -0.000001   0.000000   0.000000   0.000000
    11  C    0.000000   0.000000   0.000000   0.000000   0.000000   0.000000
    12  N    0.000000   0.000000   0.000000   0.000000   0.000000   0.000000
    13  N    7.270632   0.258019  -0.046786   0.258299  -0.040861  -0.062653
    14  C    0.258019   5.312369   0.354422  -0.078117   0.001077   0.004637
    15  H   -0.046786   0.354422   0.589702   0.000685   0.000951  -0.000223
    16  C    0.258299  -0.078117   0.000685   5.320034   0.367448   0.266844
    17  H   -0.040861   0.001077   0.000951   0.367448   0.555261  -0.062402
    18  C   -0.062653   0.004637  -0.000223   0.266844  -0.062402   5.391468
    19  H    0.001714   0.000185   0.000022  -0.042006   0.004000   0.364821
    20  H   -0.001703  -0.000036  -0.000002  -0.040072  -0.003112   0.366348
    21  H    0.003011  -0.000119   0.000008  -0.038262   0.001837   0.342215
    22  C   -0.056760   0.280216  -0.059804   0.004428  -0.000137  -0.000089
    23  H   -0.001724  -0.047102  -0.003764  -0.000049  -0.000005   0.000007
    24  H    0.003318  -0.041587   0.004576   0.000025   0.000008  -0.000041
    25  H    0.002690  -0.038214   0.001642  -0.000089   0.000003   0.000000
    26  C   -0.069628   0.271940  -0.045779  -0.091679   0.004629   0.000954
    27  H    0.002620  -0.036923  -0.001170   0.004033  -0.000038  -0.000099
    28  H    0.001295  -0.046884   0.004196   0.000507   0.000020   0.000884
    29  C   -0.051964  -0.091039  -0.001790   0.273230  -0.035251  -0.072441
    30  H    0.002287   0.004314  -0.000114  -0.039042   0.001293  -0.002356
    31  H    0.001267   0.000760   0.002007  -0.039849  -0.004212   0.003494
             19         20         21         22         23         24
     1  C    0.000000   0.000000   0.000000  -0.000019  -0.000016   0.000001
     2  C   -0.000001   0.000029  -0.000001   0.000005  -0.000001   0.000000
     3  C    0.000041   0.000830   0.000008  -0.000167  -0.000059   0.000001
     4  C    0.000159   0.000714  -0.000022  -0.000802  -0.000334   0.000480
     5  C    0.000003  -0.000010   0.000001  -0.028191  -0.009772   0.000502
     6  C    0.000000  -0.000001   0.000000   0.000525   0.000754  -0.000025
     7  H    0.000000  -0.000004   0.000000   0.000000   0.000000   0.000000
     8  H   -0.000032   0.005279   0.000272  -0.000003  -0.000001   0.000000
     9  H    0.000000   0.000000   0.000000  -0.007962   0.017588  -0.000120
    10  H    0.000000   0.000000   0.000000   0.000025   0.000013   0.000000
    11  C    0.000000   0.000000   0.000000   0.000000   0.000000   0.000000
    12  N    0.000000   0.000000   0.000000   0.000000   0.000000   0.000000
    13  N    0.001714  -0.001703   0.003011  -0.056760  -0.001724   0.003318
    14  C    0.000185  -0.000036  -0.000119   0.280216  -0.047102  -0.041587
    15  H    0.000022  -0.000002   0.000008  -0.059804  -0.003764   0.004576
    16  C   -0.042006  -0.040072  -0.038262   0.004428  -0.000049   0.000025
    17  H    0.004000  -0.003112   0.001837  -0.000137  -0.000005   0.000008
    18  C    0.364821   0.366348   0.342215  -0.000089   0.000007  -0.000041
    19  H    0.518423  -0.025589  -0.024070  -0.000088  -0.000001   0.000089
    20  H   -0.025589   0.515016  -0.027058   0.000002   0.000000   0.000001
    21  H   -0.024070  -0.027058   0.557128  -0.000001   0.000000   0.000002
    22  C   -0.000088   0.000002  -0.000001   5.418280   0.357647   0.354953
    23  H   -0.000001   0.000000   0.000000   0.357647   0.522890  -0.024972
    24  H    0.000089   0.000001   0.000002   0.354953  -0.024972   0.515808
    25  H    0.000002   0.000000   0.000000   0.349480  -0.027611  -0.021556
    26  C    0.001599  -0.000183   0.000192  -0.055728   0.003868  -0.004095
    27  H   -0.000014   0.000001   0.000002   0.000273  -0.000076   0.000028
    28  H    0.001761  -0.000042   0.000054  -0.004396   0.000038   0.005238
    29  C   -0.003192   0.003731  -0.000919   0.004903  -0.000148  -0.000061
    30  H    0.000607   0.000101   0.001589  -0.000068   0.000001  -0.000003
    31  H    0.000030  -0.000083   0.000006  -0.000055   0.000003   0.000003
             25         26         27         28         29         30
     1  C    0.000000   0.000000   0.000000   0.000000   0.000000   0.000000
     2  C    0.000000   0.000001   0.000000   0.000000  -0.000004   0.000000
     3  C    0.000002  -0.000133   0.000001   0.000002   0.000193  -0.000001
     4  C    0.000019   0.004820  -0.000077  -0.000106   0.004662  -0.000064
     5  C    0.000400   0.000000   0.000006  -0.000007  -0.000095   0.000000
     6  C   -0.000007   0.000000   0.000000   0.000000   0.000001   0.000000
     7  H    0.000000   0.000000   0.000000   0.000000   0.000000   0.000000
     8  H    0.000000  -0.000007   0.000000   0.000000   0.000171   0.000001
     9  H    0.000773   0.000038   0.000003  -0.000001  -0.000012   0.000000
    10  H    0.000000   0.000000   0.000000   0.000000   0.000000   0.000000
    11  C    0.000000   0.000000   0.000000   0.000000   0.000000   0.000000
    12  N    0.000000   0.000000   0.000000   0.000000   0.000000   0.000000
    13  N    0.002690  -0.069628   0.002620   0.001295  -0.051964   0.002287
    14  C   -0.038214   0.271940  -0.036923  -0.046884  -0.091039   0.004314
    15  H    0.001642  -0.045779  -0.001170   0.004196  -0.001790  -0.000114
    16  C   -0.000089  -0.091679   0.004033   0.000507   0.273230  -0.039042
    17  H    0.000003   0.004629  -0.000038   0.000020  -0.035251   0.001293
    18  C    0.000000   0.000954  -0.000099   0.000884  -0.072441  -0.002356
    19  H    0.000002   0.001599  -0.000014   0.001761  -0.003192   0.000607
    20  H    0.000000  -0.000183   0.000001  -0.000042   0.003731   0.000101
    21  H    0.000000   0.000192   0.000002   0.000054  -0.000919   0.001589
    22  C    0.349480  -0.055728   0.000273  -0.004396   0.004903  -0.000068
    23  H   -0.027611   0.003868  -0.000076   0.000038  -0.000148   0.000001
    24  H   -0.021556  -0.004095   0.000028   0.005238  -0.000061  -0.000003
    25  H    0.541773  -0.002736   0.001538   0.000110  -0.000019  -0.000001
    26  C   -0.002736   5.416991   0.375011   0.370446   0.266371  -0.031827
    27  H    0.001538   0.375011   0.518373  -0.025799  -0.032697   0.000295
    28  H    0.000110   0.370446  -0.025799   0.527733  -0.043536  -0.003928
    29  C   -0.000019   0.266371  -0.032697  -0.043536   5.422567   0.380406
    30  H   -0.000001  -0.031827   0.000295  -0.003928   0.380406   0.510593
    31  H   -0.000002  -0.043091  -0.004022   0.003665   0.370773  -0.027442
             31
     1  C    0.000000
     2  C    0.000000
     3  C    0.000015
     4  C   -0.000157
     5  C    0.000000
     6  C    0.000000
     7  H    0.000000
     8  H   -0.000009
     9  H    0.000000
    10  H    0.000000
    11  C    0.000000
    12  N    0.000000
    13  N    0.001267
    14  C    0.000760
    15  H    0.002007
    16  C   -0.039849
    17  H   -0.004212
    18  C    0.003494
    19  H    0.000030
    20  H   -0.000083
    21  H    0.000006
    22  C   -0.000055
    23  H    0.000003
    24  H    0.000003
    25  H   -0.000002
    26  C   -0.043091
    27  H   -0.004022
    28  H    0.003665
    29  C    0.370773
    30  H   -0.027442
    31  H    0.531126
 Mulliken atomic charges:
              1
     1  C   -0.008572
     2  C   -0.162405
     3  C   -0.201965
     4  C    0.319974
     5  C   -0.199234
     6  C   -0.163088
     7  H    0.202028
     8  H    0.199813
     9  H    0.201498
    10  H    0.201464
    11  C    0.279624
    12  N   -0.484033
    13  N   -0.643876
    14  C   -0.048057
    15  H    0.196578
    16  C   -0.056327
    17  H    0.204404
    18  C   -0.535728
    19  H    0.201539
    20  H    0.205844
    21  H    0.184129
    22  C   -0.556466
    23  H    0.212824
    24  H    0.207431
    25  H    0.191804
    26  C   -0.371973
    27  H    0.198731
    28  H    0.208750
    29  C   -0.393840
    30  H    0.203357
    31  H    0.205773
 Sum of Mulliken atomic charges =   0.00000
 Mulliken charges with hydrogens summed into heavy atoms:
              1
     1  C   -0.008572
     2  C    0.039623
     3  C   -0.002151
     4  C    0.319974
     5  C    0.002264
     6  C    0.038375
    11  C    0.279624
    12  N   -0.484033
    13  N   -0.643876
    14  C    0.148520
    16  C    0.148077
    18  C    0.055785
    22  C    0.055592
    26  C    0.035508
    29  C    0.015289
 Sum of Mulliken charges with hydrogens summed into heavy atoms =   0.00000
 Electronic spatial extent (au):  <R**2>=           3847.6472
 Charge=              0.0000 electrons
 Dipole moment (field-independent basis, Debye):
    X=              6.7937    Y=              0.1400    Z=             -0.4888  Tot=              6.8127
 Quadrupole moment (field-independent basis, Debye-Ang):
   XX=           -117.4887   YY=            -81.2820   ZZ=            -92.6123
   XY=             -0.5115   XZ=             -2.4465   YZ=              0.0026
 Traceless Quadrupole moment (field-independent basis, Debye-Ang):
   XX=            -20.3610   YY=             15.8457   ZZ=              4.5153
   XY=             -0.5115   XZ=             -2.4465   YZ=              0.0026
 Octapole moment (field-independent basis, Debye-Ang**2):
  XXX=            247.6445  YYY=              0.4967  ZZZ=             -0.9903  XYY=             -2.8382
  XXY=              3.4726  XXZ=              4.5556  XZZ=             10.1584  YZZ=              0.2564
  YYZ=             -0.6871  XYZ=             -0.2702
 Hexadecapole moment (field-independent basis, Debye-Ang**3):
 XXXX=          -5369.3703 YYYY=           -949.2554 ZZZZ=           -242.1501 XXXY=            -23.0711
 XXXZ=            -53.5388 YYYX=              1.0627 YYYZ=             -0.6338 ZZZX=             -0.7005
 ZZZY=              1.0150 XXYY=           -783.2229 XXZZ=           -714.3458 YYZZ=           -212.9063
 XXYZ=             -3.3069 YYXZ=             -3.6727 ZZXY=              2.5095
 N-N= 9.538287319060D+02 E-N=-3.323374011452D+03  KE= 6.067107873504D+02
 1|1|UNPC-DESKTOP-K2VF0AK|SP|RTD-B3LYP-FC|3-21G|C13H16N2|MELIH|25-Dec-2
 024|0||# td b3lyp/3-21g geom=connectivity||Title Card Required||0,1|C,
 0,-2.944533,-0.03717,-0.051577|C,0,-2.229182,-1.226103,-0.015226|C,0,-
 0.850009,-1.197991,0.051503|C,0,-0.163512,0.006458,0.08157|C,0,-0.8892
 35,1.19229,0.044527|C,0,-2.266573,1.175879,-0.020699|H,0,-2.752279,-2.
 160494,-0.038189|H,0,-0.285399,-2.105841,0.083616|H,0,-0.371099,2.1298
 36,0.066357|H,0,-2.820149,2.092507,-0.048852|C,0,-4.371107,-0.058748,-
 0.119969|N,0,-5.510267,-0.075658,-0.174552|N,0,1.258841,-0.001536,0.14
 3955|C,0,1.991941,1.210958,-0.290244|H,0,1.685597,1.519595,-1.288735|C
 ,0,1.965304,-1.248282,-0.271662|H,0,1.374477,-1.791076,-1.000991|C,0,2
 .210837,-2.134279,0.95172|H,0,2.822692,-1.602812,1.670241|H,0,1.271088
 ,-2.390654,1.427038|H,0,2.71319,-3.052859,0.667045|C,0,1.784248,2.3626
 46,0.692484|H,0,0.744682,2.666981,0.720839|H,0,2.077392,2.042314,1.684
 497|H,0,2.381777,3.22046,0.403005|C,0,3.436897,0.69188,-0.337415|H,0,4
 .07922,1.320869,-0.939515|H,0,3.829211,0.646726,0.671227|C,0,3.278513,
 -0.729438,-0.912903|H,0,4.119224,-1.371067,-0.686145|H,0,3.168825,-0.6
 72725,-1.989917||Version=IA32W-G09RevA.02|State=1-A|HF=-611.1420407|RM
 SD=4.298e-009|PG=C01 [X(C13H16N2)]||@


 THEORY:  SUPPOSITION WHICH HAS SCIENTIFIC BASIS,
          BUT NOT EXPERIMENTALLY PROVEN.
 FACT:    A THEORY WHICH HAS BEEN PROVEN BY ENOUGH 
          MONEY TO PAY FOR THE EXPERIMENTS.

                          --  THE WIZARD OF ID
 Job cpu time:  0 days  0 hours  6 minutes  9.0 seconds.
 File lengths (MBytes):  RWF=     64 Int=      0 D2E=      0 Chk=      5 Scr=      1
 Normal termination of Gaussian 09 at Wed Dec 25 19:58:11 2024.
