 Entering Link 1 = C:\G09W\l1.exe PID=       312.
  
 Copyright (c) 1988,1990,1992,1993,1995,1998,2003,2009, Gaussian, Inc.
                  All Rights Reserved.
  
 This is part of the Gaussian(R) 09 program.  It is based on
 the Gaussian(R) 03 system (copyright 2003, Gaussian, Inc.),
 the Gaussian(R) 98 system (copyright 1998, Gaussian, Inc.),
 the Gaussian(R) 94 system (copyright 1995, Gaussian, Inc.),
 the Gaussian 92(TM) system (copyright 1992, Gaussian, Inc.),
 the Gaussian 90(TM) system (copyright 1990, Gaussian, Inc.),
 the Gaussian 88(TM) system (copyright 1988, Gaussian, Inc.),
 the Gaussian 86(TM) system (copyright 1986, Carnegie Mellon
 University), and the Gaussian 82(TM) system (copyright 1983,
 Carnegie Mellon University). Gaussian is a federally registered
 trademark of Gaussian, Inc.
  
 This software contains proprietary and confidential information,
 including trade secrets, belonging to Gaussian, Inc.
  
 This software is provided under written license and may be
 used, copied, transmitted, or stored only in accord with that
 written license.
  
 The following legend is applicable only to US Government
 contracts under FAR:
  
                    RESTRICTED RIGHTS LEGEND
  
 Use, reproduction and disclosure by the US Government is
 subject to restrictions as set forth in subparagraphs (a)
 and (c) of the Commercial Computer Software - Restricted
 Rights clause in FAR 52.227-19.
  
 Gaussian, Inc.
 340 Quinnipiac St., Bldg. 40, Wallingford CT 06492
  
  
 ---------------------------------------------------------------
 Warning -- This program may not be used in any manner that
 competes with the business of Gaussian, Inc. or will provide
 assistance to any competitor of Gaussian, Inc.  The licensee
 of this program is prohibited from giving any competitor of
 Gaussian, Inc. access to this program.  By using this program,
 the user acknowledges that Gaussian, Inc. is engaged in the
 business of creating and licensing software in the field of
 computational chemistry and represents and warrants to the
 licensee that it is not a competitor of Gaussian, Inc. and that
 it will not use this program in any manner prohibited above.
 ---------------------------------------------------------------
  

 Cite this work as:
 Gaussian 09, Revision A.02,
 M. J. Frisch, G. W. Trucks, H. B. Schlegel, G. E. Scuseria, 
 M. A. Robb, J. R. Cheeseman, G. Scalmani, V. Barone, B. Mennucci, 
 G. A. Petersson, H. Nakatsuji, M. Caricato, X. Li, H. P. Hratchian, 
 A. F. Izmaylov, J. Bloino, G. Zheng, J. L. Sonnenberg, M. Hada, 
 M. Ehara, K. Toyota, R. Fukuda, J. Hasegawa, M. Ishida, T. Nakajima, 
 Y. Honda, O. Kitao, H. Nakai, T. Vreven, J. A. Montgomery, Jr., 
 J. E. Peralta, F. Ogliaro, M. Bearpark, J. J. Heyd, E. Brothers, 
 K. N. Kudin, V. N. Staroverov, R. Kobayashi, J. Normand, 
 K. Raghavachari, A. Rendell, J. C. Burant, S. S. Iyengar, J. Tomasi, 
 M. Cossi, N. Rega, J. M. Millam, M. Klene, J. E. Knox, J. B. Cross, 
 V. Bakken, C. Adamo, J. Jaramillo, R. Gomperts, R. E. Stratmann, 
 O. Yazyev, A. J. Austin, R. Cammi, C. Pomelli, J. W. Ochterski, 
 R. L. Martin, K. Morokuma, V. G. Zakrzewski, G. A. Voth, 
 P. Salvador, J. J. Dannenberg, S. Dapprich, A. D. Daniels, 
 O. Farkas, J. B. Foresman, J. V. Ortiz, J. Cioslowski, 
 and D. J. Fox, Gaussian, Inc., Wallingford CT, 2009.
 
 ******************************************
 Gaussian 09:  IA32W-G09RevA.02 11-Jun-2009
                25-Dec-2024 
 ******************************************
 %chk=C:\G09W\Hw5\ENERGY300.chk
 ----------------------------------
 # td b3lyp/3-21g geom=connectivity
 ----------------------------------
 1/38=1,57=2/1;
 2/12=2,17=6,18=5,40=1/2;
 3/5=5,11=2,16=1,25=1,30=1,74=-5/1,2,8,3;
 4//1;
 5/5=2,38=5/2;
 8/6=1,10=1/1;
 9/42=1/14;
 6/7=2,8=2,9=2,10=2/1;
 99/5=1,9=1/99;
 -------------------
 Title Card Required
 -------------------
 Symbolic Z-matrix:
 Charge =  0 Multiplicity = 1
 C                     2.94424   0.00948  -0.04907 
 C                     2.20469  -1.07097  -0.50983 
 C                     0.82561  -1.04013  -0.44257 
 C                     0.16325   0.05918   0.08247 
 C                     0.91313   1.13669   0.54171 
 C                     2.2905    1.11711   0.47805 
 H                     2.70907  -1.9238   -0.91668 
 H                     0.24222  -1.86365  -0.7968 
 H                     0.41385   1.99202   0.95047 
 H                     2.86273   1.95008   0.83322 
 C                     4.37083  -0.01532  -0.11613 
 N                     5.51     -0.03482  -0.16958 
 N                    -1.25922   0.05463   0.1425 
 C                    -1.96599  -1.24487   0.0536 
 H                    -1.64941  -1.80575  -0.82463 
 C                    -1.98891   1.12773  -0.59384 
 H                    -1.40614   1.46499  -1.4437 
 C                    -2.25724   2.3064    0.3446 
 H                    -2.86122   1.97669   1.18102 
 H                    -1.32479   2.70098   0.73144 
 H                    -2.7768    3.10325  -0.17721 
 C                    -1.73921  -2.08329   1.31093 
 H                    -0.69385  -2.34725   1.41901 
 H                    -2.0428   -1.51263   2.17973 
 H                    -2.31816  -2.99948   1.2652 
 C                    -3.42089  -0.7876   -0.13008 
 H                    -4.04796  -1.56902  -0.53861 
 H                    -3.81817  -0.47934   0.82932 
 C                    -3.28878   0.428    -1.06885 
 H                    -4.14315   1.08969  -1.02287 
 H                    -3.17356   0.08432  -2.09053 
 
                          Input orientation:                          
 ---------------------------------------------------------------------
 Center     Atomic      Atomic             Coordinates (Angstroms)
 Number     Number       Type             X           Y           Z
 ---------------------------------------------------------------------
      1          6           0        2.944243    0.009483   -0.049065
      2          6           0        2.204694   -1.070969   -0.509828
      3          6           0        0.825605   -1.040133   -0.442567
      4          6           0        0.163247    0.059182    0.082474
      5          6           0        0.913126    1.136689    0.541714
      6          6           0        2.290497    1.117107    0.478050
      7          1           0        2.709069   -1.923803   -0.916675
      8          1           0        0.242223   -1.863655   -0.796801
      9          1           0        0.413853    1.992015    0.950468
     10          1           0        2.862731    1.950081    0.833222
     11          6           0        4.370827   -0.015319   -0.116132
     12          7           0        5.510001   -0.034820   -0.169578
     13          7           0       -1.259222    0.054626    0.142497
     14          6           0       -1.965993   -1.244867    0.053596
     15          1           0       -1.649411   -1.805747   -0.824627
     16          6           0       -1.988913    1.127732   -0.593843
     17          1           0       -1.406140    1.464989   -1.443700
     18          6           0       -2.257237    2.306402    0.344603
     19          1           0       -2.861217    1.976693    1.181021
     20          1           0       -1.324793    2.700979    0.731436
     21          1           0       -2.776796    3.103246   -0.177207
     22          6           0       -1.739205   -2.083288    1.310931
     23          1           0       -0.693850   -2.347252    1.419006
     24          1           0       -2.042799   -1.512631    2.179732
     25          1           0       -2.318164   -2.999475    1.265199
     26          6           0       -3.420894   -0.787599   -0.130082
     27          1           0       -4.047960   -1.569024   -0.538611
     28          1           0       -3.818170   -0.479336    0.829321
     29          6           0       -3.288778    0.427997   -1.068850
     30          1           0       -4.143150    1.089688   -1.022869
     31          1           0       -3.173557    0.084324   -2.090526
 ---------------------------------------------------------------------
                    Distance matrix (angstroms):
                    1          2          3          4          5
     1  C    0.000000
     2  C    1.388024   0.000000
     3  C    2.396907   1.381073   0.000000
     4  C    2.784549   2.407399   1.386680   0.000000
     5  C    2.396883   2.765438   2.390612   1.390771   0.000000
     6  C    1.389987   2.402279   2.765344   2.408501   1.378980
     7  H    2.132053   1.071094   2.133796   3.378127   3.836525
     8  H    3.371745   2.135884   1.069582   2.115813   3.353178
     9  H    3.366359   3.836854   3.362144   2.133556   1.071417
    10  H    2.133306   3.370985   3.836521   3.380286   2.132496
    11  C    1.428375   2.441624   3.704781   4.212924   3.703455
    12  N    2.568968   3.480578   4.798826   5.353517   4.796835
    13  N    4.208070   3.700164   2.426376   1.423742   2.459539
    14  C    5.068959   4.212163   2.842730   2.497006   3.768209
    15  H    4.999821   3.936131   2.618748   2.754364   4.134177
    16  C    5.087562   4.735788   3.555846   2.496196   3.116312
    17  H    4.794719   4.510136   3.501227   2.601629   3.070610
    18  C    5.699667   5.660876   4.617667   3.313224   3.385009
    19  H    6.251911   6.149039   5.032885   3.745803   3.919182
    20  H    5.106662   5.312778   4.471959   3.100727   2.737020
    21  H    6.505234   6.507684   5.496845   4.240001   4.242608
    22  C    5.306973   4.460302   3.277374   3.117468   4.242029
    23  H    4.576587   3.708215   2.735463   2.883029   3.935716
    24  H    5.670534   5.046781   3.915029   3.425745   4.294123
    25  H    6.202745   5.227438   4.079065   4.112374   5.298351
    26  C    6.415362   5.645507   4.265463   3.688941   4.789356
    27  H    7.184862   6.272525   4.903120   4.557528   5.753292
    28  H    6.836720   6.198245   4.847354   4.086498   5.007936
    29  C    6.329744   5.721682   4.413138   3.657601   4.555454
    30  H    7.235072   6.725086   5.437041   4.563856   5.293020
    31  H    6.449856   5.723539   4.469169   3.982063   4.973645
                    6          7          8          9         10
     6  C    0.000000
     7  H    3.371586   0.000000
     8  H    3.834790   2.470490   0.000000
     9  H    2.123778   4.907940   4.236579   0.000000
    10  H    1.071188   4.253555   4.905978   2.452041   0.000000
    11  C    2.441969   2.654171   4.574389   4.563405   2.653003
    12  N    3.480167   3.460004   5.611375   5.597614   3.457380
    13  N    3.720479   4.558877   2.610827   2.684302   4.589155
    14  C    4.886388   4.822716   2.445872   4.116486   5.842267
    15  H    5.075718   4.361050   1.892724   4.672368   6.100339
    16  C    4.411623   5.611339   3.737319   2.984153   5.123594
    17  H    4.180822   5.356922   3.770338   3.053223   4.862401
    18  C    4.702565   6.644521   4.993944   2.756925   5.155558
    19  H    5.270030   7.116339   5.318965   3.283211   5.734566
    20  H    3.955146   6.354284   5.062305   1.890369   4.255533
    21  H    5.481931   7.477483   5.845381   3.561843   5.844229
    22  C    5.212937   4.977430   2.901177   4.623169   6.137922
    23  H    4.668352   4.149045   2.453548   4.502863   5.608875
    24  H    5.346840   5.686568   3.768858   4.452952   6.153673
    25  H    6.229414   5.584865   3.478148   5.698943   7.178188
    26  C    6.051257   6.283800   3.875672   4.857894   6.921473
    27  H    6.958803   6.776890   4.308032   5.899673   7.875511
    28  H    6.323593   6.909402   4.587745   4.902273   7.108904
    29  C    5.830616   6.444245   4.218251   4.498142   6.616319
    30  H    6.606461   7.486342   5.291959   5.047230   7.298473
    31  H    6.125366   6.325804   4.139553   5.075081   6.961761
                   11         12         13         14         15
    11  C    0.000000
    12  N    1.140593   0.000000
    13  N    5.636420   6.777003   0.000000
    14  C    6.457235   7.576576   1.481928   0.000000
    15  H    6.320670   7.404218   2.132736   1.089076   0.000000
    16  C    6.479280   7.600344   1.492046   2.459457   2.962064
    17  H    6.109591   7.190676   2.127611   3.146212   3.337686
    18  C    7.038032   8.128695   2.471311   3.575055   4.318139
    19  H    7.612698   8.714791   2.709107   3.528592   4.449489
    20  H    6.366846   7.416928   2.711887   4.054665   4.778838
    21  H    7.798570   8.861067   3.420428   4.429081   5.078224
    22  C    6.606474   7.677181   2.483203   1.528160   2.155389
    23  H    5.783210   6.808722   2.778154   2.167474   2.498042
    24  H    6.974778   8.046612   2.687120   2.144307   3.044149
    25  H    7.453581   8.492816   3.421893   2.161170   2.497917
    26  C    7.829912   8.962651   2.335908   1.536089   2.158048
    27  H    8.571375   9.687341   3.298061   2.188692   2.427114
    28  H    8.256444   9.392026   2.702787   2.149034   3.032891
    29  C    7.731349   8.856715   2.392878   2.410004   2.781507
    30  H    8.633135   9.755816   3.278181   3.368818   3.826431
    31  H    7.799096   8.894291   2.941420   2.796823   2.738227
                   16         17         18         19         20
    16  C    0.000000
    17  H    1.084262   0.000000
    18  C    1.530340   2.151829   0.000000
    19  H    2.152160   3.044380   1.083095   0.000000
    20  H    2.161603   2.503099   1.083874   1.757076   0.000000
    21  H    2.167257   2.483262   1.084983   1.766644   1.759478
    22  C    3.741813   4.504353   4.524547   4.214171   4.837020
    23  H    4.219510   4.820334   5.025437   4.842584   5.133759
    24  H    3.829770   4.732950   4.242487   3.720566   4.513048
    25  H    4.538533   5.301072   5.385493   5.006420   5.810926
    26  C    2.436008   3.295296   3.339501   3.110231   4.160052
    27  H    3.393408   4.123546   4.359551   4.115532   5.221263
    28  H    2.820327   3.842514   3.229830   2.659235   4.042390
    29  C    1.550777   2.181786   2.567164   2.764631   3.502101
    30  H    2.196872   2.794490   2.628125   2.699493   3.690119
    31  H    2.175349   2.334177   3.421568   3.792313   4.269459
                   21         22         23         24         25
    21  H    0.000000
    22  C    5.494660   0.000000
    23  H    6.049338   1.083570   0.000000
    24  H    5.234523   1.082882   1.759250   0.000000
    25  H    6.287613   1.084750   1.757113   1.767173   0.000000
    26  C    3.944079   2.565815   3.502708   2.785688   2.838172
    27  H    4.855572   3.002603   3.960803   3.378349   2.879603
    28  H    3.864253   2.669589   3.687576   2.458302   2.964980
    29  C    2.866027   3.790922   4.541485   3.983941   4.258807
    30  H    2.576137   4.614472   5.447291   4.630355   5.028626
    31  H    3.596123   4.280866   4.937441   4.697231   4.637068
                   26         27         28         29         30
    26  C    0.000000
    27  H    1.082004   0.000000
    28  H    1.083194   1.763933   0.000000
    29  C    1.541562   2.201273   2.169461   0.000000
    30  H    2.200666   2.704130   2.449093   1.081620   0.000000
    31  H    2.159807   2.430346   3.042819   1.084071   1.758055
                   31
    31  H    0.000000
 Stoichiometry    C13H16N2
 Framework group  C1[X(C13H16N2)]
 Deg. of freedom    87
 Full point group                 C1      NOp   1
 Largest Abelian subgroup         C1      NOp   1
 Largest concise Abelian subgroup C1      NOp   1
                         Standard orientation:                         
 ---------------------------------------------------------------------
 Center     Atomic      Atomic             Coordinates (Angstroms)
 Number     Number       Type             X           Y           Z
 ---------------------------------------------------------------------
      1          6           0        2.943724    0.022759   -0.063209
      2          6           0        2.205399   -1.033526   -0.578719
      3          6           0        0.826429   -1.009626   -0.506386
      4          6           0        0.162985    0.058706    0.077899
      5          6           0        0.911643    1.112156    0.591706
      6          6           0        2.288879    1.099299    0.523567
      7          1           0        2.710617   -1.862371   -1.031504
      8          1           0        0.243971   -1.814613   -0.902294
      9          1           0        0.411527    1.943401    1.046514
     10          1           0        2.860169    1.913649    0.920940
     11          6           0        4.370175    0.004989   -0.135148
     12          7           0        5.509243   -0.008904   -0.192469
     13          7           0       -1.259304    0.047543    0.141237
     14          6           0       -1.963355   -1.247110   -0.014633
     15          1           0       -1.647858   -1.759874   -0.922168
     16          6           0       -1.993406    1.156416   -0.535296
     17          1           0       -1.413684    1.539661   -1.367564
     18          6           0       -2.261888    2.283023    0.465011
     19          1           0       -2.862870    1.907977    1.284313
     20          1           0       -1.329308    2.658784    0.869834
     21          1           0       -2.784656    3.105156   -0.012481
     22          6           0       -1.731288   -2.150463    1.195892
     23          1           0       -0.685049   -2.417263    1.287143
     24          1           0       -2.033845   -1.627404    2.094504
     25          1           0       -2.308284   -3.064331    1.103127
     26          6           0       -3.419780   -0.784257   -0.170081
     27          1           0       -4.046162   -1.544434   -0.617863
     28          1           0       -3.815179   -0.528252    0.805331
     29          6           0       -3.292947    0.479715   -1.043408
     30          1           0       -4.148695    1.135975   -0.960220
     31          1           0       -3.179688    0.190972   -2.082162
 ---------------------------------------------------------------------
 Rotational constants (GHZ):      1.4246504      0.3237055      0.2861740
 Standard basis: 3-21G (6D, 7F)
 There are   167 symmetry adapted basis functions of A   symmetry.
 Integral buffers will be    262144 words long.
 Raffenetti 2 integral format.
 Two-electron integral symmetry is turned on.
   167 basis functions,   273 primitive gaussians,   167 cartesian basis functions
    54 alpha electrons       54 beta electrons
       nuclear repulsion energy       952.1204501250 Hartrees.
 NAtoms=   31 NActive=   31 NUniq=   31 SFac= 7.50D-01 NAtFMM=   80 NAOKFM=F Big=F
 One-electron integrals computed using PRISM.
 NBasis=   167 RedAO= T  NBF=   167
 NBsUse=   167 1.00D-06 NBFU=   167
 Harris functional with IExCor=  402 diagonalized for initial guess.
 ExpMin= 1.83D-01 ExpMax= 2.43D+02 ExpMxC= 2.43D+02 IAcc=1 IRadAn=         1 AccDes= 0.00D+00
 HarFok:  IExCor=  402 AccDes= 0.00D+00 IRadAn=         1 IDoV= 1
 ScaDFX=  1.000000  1.000000  1.000000  1.000000
 FoFCou: FMM=F IPFlag=           0 FMFlag=      100000 FMFlg1=           0
         NFxFlg=           0 DoJE=T BraDBF=F KetDBF=T FulRan=T
         Omega=  0.000000  0.000000  1.000000  0.000000  0.000000 ICntrl=     500 IOpCl=  0
         NMat0=    1 NMatS0=    1 NMatT0=    0 NMatD0=    1 NMtDS0=    0 NMtDT0=    0
         I1Cent=           4 NGrid=           0.
 Petite list used in FoFCou.
 Initial guess orbital symmetries:
       Occupied  (A) (A) (A) (A) (A) (A) (A) (A) (A) (A) (A) (A)
                 (A) (A) (A) (A) (A) (A) (A) (A) (A) (A) (A) (A)
                 (A) (A) (A) (A) (A) (A) (A) (A) (A) (A) (A) (A)
                 (A) (A) (A) (A) (A) (A) (A) (A) (A) (A) (A) (A)
                 (A) (A) (A) (A) (A) (A)
       Virtual   (A) (A) (A) (A) (A) (A) (A) (A) (A) (A) (A) (A)
                 (A) (A) (A) (A) (A) (A) (A) (A) (A) (A) (A) (A)
                 (A) (A) (A) (A) (A) (A) (A) (A) (A) (A) (A) (A)
                 (A) (A) (A) (A) (A) (A) (A) (A) (A) (A) (A) (A)
                 (A) (A) (A) (A) (A) (A) (A) (A) (A) (A) (A) (A)
                 (A) (A) (A) (A) (A) (A) (A) (A) (A) (A) (A) (A)
                 (A) (A) (A) (A) (A) (A) (A) (A) (A) (A) (A) (A)
                 (A) (A) (A) (A) (A) (A) (A) (A) (A) (A) (A) (A)
                 (A) (A) (A) (A) (A) (A) (A) (A) (A) (A) (A) (A)
                 (A) (A) (A) (A) (A)
 The electronic state of the initial guess is 1-A.
 Requested convergence on RMS density matrix=1.00D-08 within 128 cycles.
 Requested convergence on MAX density matrix=1.00D-06.
 Requested convergence on             energy=1.00D-06.
 No special actions if energy rises.
 Integral accuracy reduced to 1.0D-05 until final iterations.
 Initial convergence to 1.0D-05 achieved.  Increase integral accuracy.
 SCF Done:  E(RB3LYP) =  -611.150139560     A.U. after   15 cycles
             Convg  =    0.8879D-08             -V/T =  2.0074
 ExpMin= 1.83D-01 ExpMax= 2.43D+02 ExpMxC= 2.43D+02 IAcc=1 IRadAn=         1 AccDes= 0.00D+00
 HarFok:  IExCor=  205 AccDes= 0.00D+00 IRadAn=         1 IDoV=-2
 ScaDFX=  1.000000  1.000000  1.000000  1.000000
 Range of M.O.s used for correlation:    16   167
 NBasis=   167 NAE=    54 NBE=    54 NFC=    15 NFV=     0
 NROrb=    152 NOA=    39 NOB=    39 NVA=   113 NVB=   113
 Would need an additional   268100000 words for in-memory AO integral storage.
 Orbital symmetries:
       Occupied  (A) (A) (A) (A) (A) (A) (A) (A) (A) (A) (A) (A)
                 (A) (A) (A) (A) (A) (A) (A) (A) (A) (A) (A) (A)
                 (A) (A) (A) (A) (A) (A) (A) (A) (A) (A) (A) (A)
                 (A) (A) (A) (A) (A) (A) (A) (A) (A) (A) (A) (A)
                 (A) (A) (A) (A) (A) (A)
       Virtual   (A) (A) (A) (A) (A) (A) (A) (A) (A) (A) (A) (A)
                 (A) (A) (A) (A) (A) (A) (A) (A) (A) (A) (A) (A)
                 (A) (A) (A) (A) (A) (A) (A) (A) (A) (A) (A) (A)
                 (A) (A) (A) (A) (A) (A) (A) (A) (A) (A) (A) (A)
                 (A) (A) (A) (A) (A) (A) (A) (A) (A) (A) (A) (A)
                 (A) (A) (A) (A) (A) (A) (A) (A) (A) (A) (A) (A)
                 (A) (A) (A) (A) (A) (A) (A) (A) (A) (A) (A) (A)
                 (A) (A) (A) (A) (A) (A) (A) (A) (A) (A) (A) (A)
                 (A) (A) (A) (A) (A) (A) (A) (A) (A) (A) (A) (A)
                 (A) (A) (A) (A) (A)
    12 initial guesses have been made.
 Convergence on wavefunction:    0.001000000000000
 Iteration     1 Dimension    12 NMult    12
 CISAX will form    12 AO SS matrices at one time.
 New state      1 was old state      2
 New state      2 was old state      1
 Iteration     2 Dimension    18 NMult    18
 New state      1 was old state      2
 New state      2 was old state      1
 Iteration     3 Dimension    24 NMult    24
 Iteration     4 Dimension    30 NMult    30
 Iteration     5 Dimension    34 NMult    34
 Iteration     6 Dimension    36 NMult    36
 ***********************************************************************
 Excited states from <AA,BB:AA,BB> singles matrix:
 ***********************************************************************
 
 Ground to excited state transition electric dipole moments (Au):
       state          X           Y           Z        Dip. S.      Osc.
         1        -1.7271     -0.0502     -0.0253      2.9860      0.3281
         2         0.3394     -0.2723     -0.1611      0.2153      0.0240
         3        -0.0561      0.3019      0.1711      0.1235      0.0177
 Ground to excited state transition velocity dipole moments (Au):
       state          X           Y           Z        Dip. S.      Osc.
         1         0.2320      0.0070      0.0111      0.0540      0.2184
         2        -0.0436      0.0418      0.0257      0.0043      0.0172
         3         0.0081     -0.0551     -0.0316      0.0041      0.0127
 Ground to excited state transition magnetic dipole moments (Au):
       state          X           Y           Z
         1        -0.1450     -0.0005      0.0735
         2         0.0770     -0.2397      0.6234
         3        -0.0430      0.1180     -0.2926
 <0|del|b> * <b|rxdel|0> + <0|del|b> * <b|delr+rdel|0>
 Rotatory Strengths (R) in cgs (10**-40 erg-esu-cm/Gauss)
       state          XX          YY          ZZ    R(velocity)
         1         4.1071    -45.5606    -99.3803    -46.9446
 Total R(velocity) tensor for State=          1
                 1             2             3 
      1   0.410712D+01 -0.580065D+02 -0.489993D+02
      2  -0.404828D+01 -0.455606D+02  0.113137D+03
      3   0.579978D+01 -0.340823D+02 -0.993803D+02
 R(velocity) tensor in inp. orien. for State=          1
                 1             2             3 
      1   0.406658D+01 -0.605264D+02 -0.453158D+02
      2  -0.413415D+01 -0.413798D+02  0.110158D+03
      3   0.621032D+01 -0.373304D+02 -0.103521D+03
         2        10.3943     24.8220    -23.9297      3.7622
 Total R(velocity) tensor for State=          2
                 1             2             3 
      1   0.103943D+02 -0.194049D+02  0.491300D+02
      2  -0.317434D+01  0.248220D+02 -0.456859D+02
      3  -0.671212D+01  0.772944D+01 -0.239297D+02
 R(velocity) tensor in inp. orien. for State=          2
                 1             2             3 
      1   0.102313D+02 -0.167586D+02  0.500661D+02
      2  -0.336817D+01  0.227212D+02 -0.482835D+02
      3  -0.643646D+01  0.522467D+01 -0.216659D+02
         3         5.7681      5.4792     -3.2913      2.6520
 Total R(velocity) tensor for State=          3
                 1             2             3 
      1   0.576811D+01 -0.347635D+00  0.208479D+01
      2  -0.169272D+01  0.547918D+01 -0.996800D+01
      3  -0.331405D+01  0.140291D+01 -0.329132D+01
 R(velocity) tensor in inp. orien. for State=          3
                 1             2             3 
      1   0.576632D+01 -0.240938D+00  0.209966D+01
      2  -0.183984D+01  0.500579D+01 -0.104180D+02
      3  -0.319440D+01  0.969267D+00 -0.281614D+01
 1/2[<0|r|b>*<b|rxdel|0> + (<0|rxdel|b>*<b|r|0>)*]
 Rotatory Strengths (R) in cgs (10**-40 erg-esu-cm/Gauss)
       state          XX          YY          ZZ     R(length)     R(au)
         1      -177.0833     -0.0177      1.3136    -58.5958     -0.1243
         2       -18.4775    -46.1659     71.0101      2.1223      0.0045
         3        -1.7048    -25.1986     35.4034      2.8333      0.0060
  1/2[<0|del|b>*<b|r|0> + (<0|r|b>*<b|del|0>)*] (Au)
       state          X           Y           Z        Dip. S.   Osc.(frdel)
         1        -0.4007     -0.0004     -0.0003      0.4014      0.2676
         2        -0.0148     -0.0114     -0.0041      0.0303      0.0202
         3        -0.0005     -0.0166     -0.0054      0.0225      0.0150
 Ground to excited state transition densities written to RWF  633

 Excitation energies and oscillator strengths:
 
 Excited State   1:      Singlet-A      4.4853 eV  276.43 nm  f=0.3281  <S**2>=0.000
      54 -> 55         0.68558
      54 -> 56         0.10741
 This state for optimization and/or second-order correction.
 Copying the excited state density for this state as the 1-particle RhoCI density.
 
 Excited State   2:      Singlet-A      4.5501 eV  272.49 nm  f=0.0240  <S**2>=0.000
      53 -> 55         0.16615
      54 -> 55        -0.10865
      54 -> 56         0.67668
 
 Excited State   3:      Singlet-A      5.8337 eV  212.53 nm  f=0.0177  <S**2>=0.000
      52 -> 56        -0.44118
      53 -> 55         0.53873
      54 -> 56        -0.11174
 SavETr:  write IOETrn=   770 NScale= 10 NData=  16 NLR=1 LETran=      62.

 **********************************************************************

            Population analysis using the SCF density.

 **********************************************************************

 Orbital symmetries:
       Occupied  (A) (A) (A) (A) (A) (A) (A) (A) (A) (A) (A) (A)
                 (A) (A) (A) (A) (A) (A) (A) (A) (A) (A) (A) (A)
                 (A) (A) (A) (A) (A) (A) (A) (A) (A) (A) (A) (A)
                 (A) (A) (A) (A) (A) (A) (A) (A) (A) (A) (A) (A)
                 (A) (A) (A) (A) (A) (A)
       Virtual   (A) (A) (A) (A) (A) (A) (A) (A) (A) (A) (A) (A)
                 (A) (A) (A) (A) (A) (A) (A) (A) (A) (A) (A) (A)
                 (A) (A) (A) (A) (A) (A) (A) (A) (A) (A) (A) (A)
                 (A) (A) (A) (A) (A) (A) (A) (A) (A) (A) (A) (A)
                 (A) (A) (A) (A) (A) (A) (A) (A) (A) (A) (A) (A)
                 (A) (A) (A) (A) (A) (A) (A) (A) (A) (A) (A) (A)
                 (A) (A) (A) (A) (A) (A) (A) (A) (A) (A) (A) (A)
                 (A) (A) (A) (A) (A) (A) (A) (A) (A) (A) (A) (A)
                 (A) (A) (A) (A) (A) (A) (A) (A) (A) (A) (A) (A)
                 (A) (A) (A) (A) (A)
 The electronic state is 1-A.
 Alpha  occ. eigenvalues --  -14.26413 -14.23805 -10.17708 -10.16552 -10.16445
 Alpha  occ. eigenvalues --  -10.16234 -10.14918 -10.14526 -10.14483 -10.13440
 Alpha  occ. eigenvalues --  -10.13355 -10.12913 -10.12776 -10.11252 -10.11232
 Alpha  occ. eigenvalues --   -0.95896  -0.92635  -0.88164  -0.81357  -0.79254
 Alpha  occ. eigenvalues --   -0.76901  -0.75573  -0.72150  -0.65704  -0.64919
 Alpha  occ. eigenvalues --   -0.64066  -0.58862  -0.57843  -0.56911  -0.53380
 Alpha  occ. eigenvalues --   -0.49717  -0.48600  -0.46830  -0.46500  -0.44768
 Alpha  occ. eigenvalues --   -0.43213  -0.42923  -0.42144  -0.41510  -0.40220
 Alpha  occ. eigenvalues --   -0.39513  -0.38246  -0.38124  -0.37582  -0.35931
 Alpha  occ. eigenvalues --   -0.34548  -0.34156  -0.33799  -0.33701  -0.33454
 Alpha  occ. eigenvalues --   -0.32935  -0.27506  -0.27084  -0.20637
 Alpha virt. eigenvalues --   -0.02665  -0.00974   0.06159   0.09351   0.10045
 Alpha virt. eigenvalues --    0.10453   0.11472   0.12718   0.13766   0.14973
 Alpha virt. eigenvalues --    0.15639   0.16287   0.16740   0.18330   0.18576
 Alpha virt. eigenvalues --    0.18935   0.19973   0.20300   0.20940   0.21838
 Alpha virt. eigenvalues --    0.22562   0.22936   0.23384   0.25053   0.26372
 Alpha virt. eigenvalues --    0.27933   0.28791   0.30131   0.31553   0.31775
 Alpha virt. eigenvalues --    0.35781   0.37279   0.38706   0.39688   0.51631
 Alpha virt. eigenvalues --    0.54914   0.60336   0.63757   0.66099   0.66580
 Alpha virt. eigenvalues --    0.67705   0.68667   0.69718   0.70720   0.70831
 Alpha virt. eigenvalues --    0.71822   0.72448   0.74410   0.74734   0.75802
 Alpha virt. eigenvalues --    0.76901   0.77209   0.77848   0.78447   0.79713
 Alpha virt. eigenvalues --    0.80088   0.82044   0.83918   0.85493   0.87124
 Alpha virt. eigenvalues --    0.88274   0.90701   0.93447   0.94364   0.94971
 Alpha virt. eigenvalues --    0.96398   0.96681   0.99897   1.00900   1.01761
 Alpha virt. eigenvalues --    1.02214   1.05035   1.05760   1.07713   1.08106
 Alpha virt. eigenvalues --    1.09048   1.10031   1.11526   1.12075   1.13015
 Alpha virt. eigenvalues --    1.14799   1.15623   1.16469   1.19036   1.20888
 Alpha virt. eigenvalues --    1.21974   1.23845   1.24986   1.29259   1.30915
 Alpha virt. eigenvalues --    1.33864   1.38008   1.38950   1.42861   1.50108
 Alpha virt. eigenvalues --    1.52087   1.53393   1.55056   1.57673   1.64695
 Alpha virt. eigenvalues --    1.69899   1.75625   1.79276   1.87234   1.91254
 Alpha virt. eigenvalues --    1.95726   2.00736   2.20373   2.33305   2.44479
 Alpha virt. eigenvalues --    2.51065   3.00342   3.04470
          Condensed to atoms (all electrons):
              1          2          3          4          5          6
     1  C    5.436175   0.450791  -0.086153  -0.030489  -0.086360   0.445545
     2  C    0.450791   5.142781   0.423107  -0.055361  -0.028195  -0.056830
     3  C   -0.086153   0.423107   5.288008   0.385021  -0.083257  -0.028753
     4  C   -0.030489  -0.055361   0.385021   4.964934   0.424413  -0.063982
     5  C   -0.086360  -0.028195  -0.083257   0.424413   5.223668   0.441891
     6  C    0.445545  -0.056830  -0.028753  -0.063982   0.441891   5.137259
     7  H   -0.042853   0.396397  -0.034376   0.003826  -0.000192   0.003813
     8  H    0.004358  -0.039214   0.391708  -0.052935   0.004061  -0.000147
     9  H    0.004450  -0.000273   0.004777  -0.046889   0.379872  -0.038397
    10  H   -0.042912   0.003794  -0.000185   0.004074  -0.034245   0.396666
    11  C    0.070239  -0.077035   0.004592  -0.000119   0.004326  -0.077032
    12  N   -0.118340  -0.000732  -0.000006   0.000000  -0.000006  -0.000715
    13  N   -0.000364   0.005089  -0.061427   0.302466  -0.061454   0.003906
    14  C    0.000006   0.000473  -0.009634  -0.062769   0.002564  -0.000130
    15  H   -0.000001  -0.000360  -0.002565  -0.002999  -0.000112   0.000007
    16  C    0.000021  -0.000085   0.000470  -0.064922  -0.002326  -0.000028
    17  H   -0.000017  -0.000078   0.002143  -0.001561   0.001404   0.000056
    18  C   -0.000003   0.000004  -0.000189  -0.000473  -0.005163   0.000091
    19  H    0.000000   0.000000   0.000006   0.000108   0.000061  -0.000001
    20  H    0.000002  -0.000001   0.000021   0.000312  -0.000343   0.000048
    21  H    0.000000   0.000000   0.000005   0.000013   0.000062   0.000000
    22  C   -0.000003  -0.000100  -0.003221  -0.002740  -0.000024   0.000014
    23  H   -0.000010   0.000132   0.004335   0.001684   0.000023  -0.000013
    24  H    0.000000  -0.000003  -0.000042   0.000542  -0.000058   0.000001
    25  H    0.000000  -0.000002  -0.000035   0.000029  -0.000002   0.000000
    26  C    0.000000  -0.000005   0.000232   0.005069  -0.000106   0.000001
    27  H    0.000000   0.000000   0.000011  -0.000091   0.000000   0.000000
    28  H    0.000000   0.000000  -0.000010  -0.000134   0.000003   0.000000
    29  C    0.000000   0.000003  -0.000198   0.004876   0.000026   0.000001
    30  H    0.000000   0.000000   0.000000  -0.000059  -0.000001   0.000000
    31  H    0.000000   0.000000   0.000001  -0.000154   0.000006   0.000000
              7          8          9         10         11         12
     1  C   -0.042853   0.004358   0.004450  -0.042912   0.070239  -0.118340
     2  C    0.396397  -0.039214  -0.000273   0.003794  -0.077035  -0.000732
     3  C   -0.034376   0.391708   0.004777  -0.000185   0.004592  -0.000006
     4  C    0.003826  -0.052935  -0.046889   0.004074  -0.000119   0.000000
     5  C   -0.000192   0.004061   0.379872  -0.034245   0.004326  -0.000006
     6  C    0.003813  -0.000147  -0.038397   0.396666  -0.077032  -0.000715
     7  H    0.480508  -0.003737   0.000002  -0.000052  -0.006251  -0.000097
     8  H   -0.003737   0.492933  -0.000043   0.000002  -0.000078   0.000000
     9  H    0.000002  -0.000043   0.481611  -0.004011  -0.000080   0.000000
    10  H   -0.000052   0.000002  -0.004011   0.479025  -0.006226  -0.000097
    11  C   -0.006251  -0.000078  -0.000080  -0.006226   4.956017   0.848626
    12  N   -0.000097   0.000000   0.000000  -0.000097   0.848626   6.751689
    13  N   -0.000019  -0.010506  -0.004883  -0.000015   0.000000   0.000000
    14  C   -0.000003   0.003735  -0.000026   0.000001   0.000000   0.000000
    15  H    0.000008   0.011331   0.000006   0.000000   0.000000   0.000000
    16  C    0.000001   0.000056   0.000001  -0.000001   0.000000   0.000000
    17  H    0.000000   0.000089   0.000243  -0.000001   0.000000   0.000000
    18  C    0.000000  -0.000008   0.000859   0.000002   0.000000   0.000000
    19  H    0.000000   0.000000   0.000026   0.000000   0.000000   0.000000
    20  H    0.000000   0.000000   0.012887  -0.000009   0.000000   0.000000
    21  H    0.000000   0.000000   0.000089   0.000000   0.000000   0.000000
    22  C    0.000000  -0.001894  -0.000013   0.000000   0.000000   0.000000
    23  H   -0.000005   0.000335  -0.000004   0.000000   0.000000   0.000000
    24  H    0.000000   0.000050   0.000005   0.000000   0.000000   0.000000
    25  H    0.000000   0.000161   0.000000   0.000000   0.000000   0.000000
    26  C    0.000000   0.000001  -0.000007   0.000000   0.000000   0.000000
    27  H    0.000000   0.000003   0.000000   0.000000   0.000000   0.000000
    28  H    0.000000   0.000003   0.000001   0.000000   0.000000   0.000000
    29  C    0.000000  -0.000059   0.000017   0.000000   0.000000   0.000000
    30  H    0.000000   0.000000   0.000000   0.000000   0.000000   0.000000
    31  H    0.000000  -0.000005   0.000000   0.000000   0.000000   0.000000
             13         14         15         16         17         18
     1  C   -0.000364   0.000006  -0.000001   0.000021  -0.000017  -0.000003
     2  C    0.005089   0.000473  -0.000360  -0.000085  -0.000078   0.000004
     3  C   -0.061427  -0.009634  -0.002565   0.000470   0.002143  -0.000189
     4  C    0.302466  -0.062769  -0.002999  -0.064922  -0.001561  -0.000473
     5  C   -0.061454   0.002564  -0.000112  -0.002326   0.001404  -0.005163
     6  C    0.003906  -0.000130   0.000007  -0.000028   0.000056   0.000091
     7  H   -0.000019  -0.000003   0.000008   0.000001   0.000000   0.000000
     8  H   -0.010506   0.003735   0.011331   0.000056   0.000089  -0.000008
     9  H   -0.004883  -0.000026   0.000006   0.000001   0.000243   0.000859
    10  H   -0.000015   0.000001   0.000000  -0.000001  -0.000001   0.000002
    11  C    0.000000   0.000000   0.000000   0.000000   0.000000   0.000000
    12  N    0.000000   0.000000   0.000000   0.000000   0.000000   0.000000
    13  N    7.263003   0.256562  -0.048517   0.262496  -0.039997  -0.065898
    14  C    0.256562   5.311766   0.347791  -0.081224   0.001172   0.005345
    15  H   -0.048517   0.347791   0.609108   0.001023   0.000971  -0.000241
    16  C    0.262496  -0.081224   0.001023   5.308059   0.372473   0.267536
    17  H   -0.039997   0.001172   0.000971   0.372473   0.553812  -0.061638
    18  C   -0.065898   0.005345  -0.000241   0.267536  -0.061638   5.412827
    19  H    0.002653   0.000158   0.000027  -0.042792   0.004072   0.362151
    20  H   -0.001223  -0.000044  -0.000001  -0.039595  -0.001690   0.356437
    21  H    0.003068  -0.000140   0.000009  -0.037263   0.002131   0.335761
    22  C   -0.055597   0.281950  -0.062517   0.004315  -0.000135  -0.000088
    23  H   -0.002801  -0.038630  -0.003689  -0.000018  -0.000004   0.000003
    24  H    0.002983  -0.041596   0.004617   0.000049   0.000007  -0.000043
    25  H    0.002817  -0.038460   0.001837  -0.000085   0.000003  -0.000001
    26  C   -0.066641   0.269491  -0.046357  -0.090848   0.004794   0.000473
    27  H    0.002630  -0.037215  -0.001022   0.004028  -0.000037  -0.000101
    28  H    0.001184  -0.045962   0.004272   0.000586   0.000015   0.000858
    29  C   -0.052375  -0.090907  -0.001951   0.272426  -0.037338  -0.071871
    30  H    0.002313   0.004246  -0.000119  -0.038828   0.001331  -0.002467
    31  H    0.001177   0.000926   0.002090  -0.039204  -0.004373   0.003539
             19         20         21         22         23         24
     1  C    0.000000   0.000002   0.000000  -0.000003  -0.000010   0.000000
     2  C    0.000000  -0.000001   0.000000  -0.000100   0.000132  -0.000003
     3  C    0.000006   0.000021   0.000005  -0.003221   0.004335  -0.000042
     4  C    0.000108   0.000312   0.000013  -0.002740   0.001684   0.000542
     5  C    0.000061  -0.000343   0.000062  -0.000024   0.000023  -0.000058
     6  C   -0.000001   0.000048   0.000000   0.000014  -0.000013   0.000001
     7  H    0.000000   0.000000   0.000000   0.000000  -0.000005   0.000000
     8  H    0.000000   0.000000   0.000000  -0.001894   0.000335   0.000050
     9  H    0.000026   0.012887   0.000089  -0.000013  -0.000004   0.000005
    10  H    0.000000  -0.000009   0.000000   0.000000   0.000000   0.000000
    11  C    0.000000   0.000000   0.000000   0.000000   0.000000   0.000000
    12  N    0.000000   0.000000   0.000000   0.000000   0.000000   0.000000
    13  N    0.002653  -0.001223   0.003068  -0.055597  -0.002801   0.002983
    14  C    0.000158  -0.000044  -0.000140   0.281950  -0.038630  -0.041596
    15  H    0.000027  -0.000001   0.000009  -0.062517  -0.003689   0.004617
    16  C   -0.042792  -0.039595  -0.037263   0.004315  -0.000018   0.000049
    17  H    0.004072  -0.001690   0.002131  -0.000135  -0.000004   0.000007
    18  C    0.362151   0.356437   0.335761  -0.000088   0.000003  -0.000043
    19  H    0.524746  -0.026834  -0.023423  -0.000098  -0.000001   0.000096
    20  H   -0.026834   0.518937  -0.025767   0.000002   0.000000   0.000001
    21  H   -0.023423  -0.025767   0.561711  -0.000001   0.000000   0.000002
    22  C   -0.000098   0.000002  -0.000001   5.363815   0.367017   0.360126
    23  H   -0.000001   0.000000   0.000000   0.367017   0.514891  -0.026033
    24  H    0.000096   0.000001   0.000002   0.360126  -0.026033   0.518148
    25  H    0.000002   0.000000   0.000000   0.350314  -0.028158  -0.023382
    26  C    0.001749  -0.000166   0.000239  -0.057550   0.003774  -0.004164
    27  H   -0.000012   0.000001   0.000002   0.000262  -0.000076   0.000000
    28  H    0.001778  -0.000045   0.000056  -0.004489   0.000021   0.005169
    29  C   -0.003462   0.003812  -0.001090   0.005056  -0.000137  -0.000059
    30  H    0.000581   0.000110   0.001630  -0.000070   0.000001  -0.000002
    31  H    0.000030  -0.000089   0.000005  -0.000059   0.000003   0.000002
             25         26         27         28         29         30
     1  C    0.000000   0.000000   0.000000   0.000000   0.000000   0.000000
     2  C   -0.000002  -0.000005   0.000000   0.000000   0.000003   0.000000
     3  C   -0.000035   0.000232   0.000011  -0.000010  -0.000198   0.000000
     4  C    0.000029   0.005069  -0.000091  -0.000134   0.004876  -0.000059
     5  C   -0.000002  -0.000106   0.000000   0.000003   0.000026  -0.000001
     6  C    0.000000   0.000001   0.000000   0.000000   0.000001   0.000000
     7  H    0.000000   0.000000   0.000000   0.000000   0.000000   0.000000
     8  H    0.000161   0.000001   0.000003   0.000003  -0.000059   0.000000
     9  H    0.000000  -0.000007   0.000000   0.000001   0.000017   0.000000
    10  H    0.000000   0.000000   0.000000   0.000000   0.000000   0.000000
    11  C    0.000000   0.000000   0.000000   0.000000   0.000000   0.000000
    12  N    0.000000   0.000000   0.000000   0.000000   0.000000   0.000000
    13  N    0.002817  -0.066641   0.002630   0.001184  -0.052375   0.002313
    14  C   -0.038460   0.269491  -0.037215  -0.045962  -0.090907   0.004246
    15  H    0.001837  -0.046357  -0.001022   0.004272  -0.001951  -0.000119
    16  C   -0.000085  -0.090848   0.004028   0.000586   0.272426  -0.038828
    17  H    0.000003   0.004794  -0.000037   0.000015  -0.037338   0.001331
    18  C   -0.000001   0.000473  -0.000101   0.000858  -0.071871  -0.002467
    19  H    0.000002   0.001749  -0.000012   0.001778  -0.003462   0.000581
    20  H    0.000000  -0.000166   0.000001  -0.000045   0.003812   0.000110
    21  H    0.000000   0.000239   0.000002   0.000056  -0.001090   0.001630
    22  C    0.350314  -0.057550   0.000262  -0.004489   0.005056  -0.000070
    23  H   -0.028158   0.003774  -0.000076   0.000021  -0.000137   0.000001
    24  H   -0.023382  -0.004164   0.000000   0.005169  -0.000059  -0.000002
    25  H    0.548853  -0.002681   0.001502   0.000110  -0.000036   0.000000
    26  C   -0.002681   5.421838   0.375114   0.370202   0.264597  -0.031958
    27  H    0.001502   0.375114   0.520918  -0.026167  -0.032993   0.000324
    28  H    0.000110   0.370202  -0.026167   0.528560  -0.043524  -0.003977
    29  C   -0.000036   0.264597  -0.032993  -0.043524   5.426482   0.379889
    30  H    0.000000  -0.031958   0.000324  -0.003977   0.379889   0.512790
    31  H   -0.000002  -0.043314  -0.004057   0.003685   0.369958  -0.027713
             31
     1  C    0.000000
     2  C    0.000000
     3  C    0.000001
     4  C   -0.000154
     5  C    0.000006
     6  C    0.000000
     7  H    0.000000
     8  H   -0.000005
     9  H    0.000000
    10  H    0.000000
    11  C    0.000000
    12  N    0.000000
    13  N    0.001177
    14  C    0.000926
    15  H    0.002090
    16  C   -0.039204
    17  H   -0.004373
    18  C    0.003539
    19  H    0.000030
    20  H   -0.000089
    21  H    0.000005
    22  C   -0.000059
    23  H    0.000003
    24  H    0.000002
    25  H   -0.000002
    26  C   -0.043314
    27  H   -0.004057
    28  H    0.003685
    29  C    0.369958
    30  H   -0.027713
    31  H    0.534434
 Mulliken atomic charges:
              1
     1  C   -0.004083
     2  C   -0.164299
     3  C   -0.194385
     4  C    0.288310
     5  C   -0.180534
     6  C   -0.163271
     7  H    0.203031
     8  H    0.199798
     9  H    0.209778
    10  H    0.204192
    11  C    0.283021
    12  N   -0.480323
    13  N   -0.640631
    14  C   -0.039445
    15  H    0.187354
    16  C   -0.056322
    17  H    0.202152
    18  C   -0.537702
    19  H    0.198378
    20  H    0.203238
    21  H    0.182903
    22  C   -0.544270
    23  H    0.207358
    24  H    0.203581
    25  H    0.187216
    26  C   -0.373776
    27  H    0.196975
    28  H    0.207806
    29  C   -0.391144
    30  H    0.201978
    31  H    0.203116
 Sum of Mulliken atomic charges =   0.00000
 Mulliken charges with hydrogens summed into heavy atoms:
              1
     1  C   -0.004083
     2  C    0.038732
     3  C    0.005413
     4  C    0.288310
     5  C    0.029245
     6  C    0.040920
    11  C    0.283021
    12  N   -0.480323
    13  N   -0.640631
    14  C    0.147909
    16  C    0.145830
    18  C    0.046817
    22  C    0.053885
    26  C    0.031006
    29  C    0.013950
 Sum of Mulliken charges with hydrogens summed into heavy atoms =   0.00000
 Electronic spatial extent (au):  <R**2>=           3846.3160
 Charge=              0.0000 electrons
 Dipole moment (field-independent basis, Debye):
    X=             -6.1634    Y=             -0.0943    Z=             -0.4669  Tot=              6.1818
 Quadrupole moment (field-independent basis, Debye-Ang):
   XX=           -116.9204   YY=            -83.4289   ZZ=            -90.6168
   XY=              0.7696   XZ=              2.5999   YZ=              3.0551
 Traceless Quadrupole moment (field-independent basis, Debye-Ang):
   XX=            -19.9317   YY=             13.5598   ZZ=              6.3719
   XY=              0.7696   XZ=              2.5999   YZ=              3.0551
 Octapole moment (field-independent basis, Debye-Ang**2):
  XXX=           -239.3786  YYY=             -0.7257  ZZZ=             -0.7406  XYY=              0.6105
  XXY=              1.2067  XXZ=              5.9432  XZZ=             -6.0142  YZZ=             -0.1148
  YYZ=             -0.2493  XYZ=              7.4369
 Hexadecapole moment (field-independent basis, Debye-Ang**3):
 XXXX=          -5345.6167 YYYY=           -893.5836 ZZZZ=           -321.7341 XXXY=              7.5134
 XXXZ=             58.6879 YYYX=              6.2510 YYYZ=             14.7348 ZZZX=             -1.1077
 ZZZY=              2.4760 XXYY=           -780.6164 XXZZ=           -719.0613 YYZZ=           -201.4285
 XXYZ=             18.0190 YYXZ=              5.0036 ZZXY=              0.1006
 N-N= 9.521204501250D+02 E-N=-3.320074297191D+03  KE= 6.066719023027D+02
 1|1|UNPC-DESKTOP-K2VF0AK|SP|RTD-B3LYP-FC|3-21G|C13H16N2|MELIH|25-Dec-2
 024|0||# td b3lyp/3-21g geom=connectivity||Title Card Required||0,1|C,
 0,2.94424283,0.00948313,-0.04906522|C,0,2.20469447,-1.07096928,-0.5098
 2827|C,0,0.82560546,-1.04013311,-0.44256658|C,0,0.163247,0.059182,0.08
 2474|C,0,0.91312631,1.1366894,0.54171426|C,0,2.29049689,1.11710694,0.4
 7805044|H,0,2.7090692,-1.92380283,-0.91667523|H,0,0.24222269,-1.863654
 8,-0.79680096|H,0,0.41385346,1.99201539,0.95046786|H,0,2.86273069,1.95
 008122,0.83322168|C,0,4.37082707,-0.01531867,-0.11613151|N,0,5.5100005
 6,-0.03482028,-0.16957761|N,0,-1.259222,0.054626,0.142497|C,0,-1.96599
 3,-1.244867,0.053596|H,0,-1.649411,-1.805747,-0.824627|C,0,-1.988913,1
 .127732,-0.593843|H,0,-1.40614,1.464989,-1.4437|C,0,-2.257237,2.306402
 ,0.344603|H,0,-2.861217,1.976693,1.181021|H,0,-1.324793,2.700979,0.731
 436|H,0,-2.776796,3.103246,-0.177207|C,0,-1.739205,-2.083288,1.310931|
 H,0,-0.69385,-2.347252,1.419006|H,0,-2.042799,-1.512631,2.179732|H,0,-
 2.318164,-2.999475,1.265199|C,0,-3.420894,-0.787599,-0.130082|H,0,-4.0
 4796,-1.569024,-0.538611|H,0,-3.81817,-0.479336,0.829321|C,0,-3.288778
 ,0.427997,-1.06885|H,0,-4.14315,1.089688,-1.022869|H,0,-3.173557,0.084
 324,-2.090526||Version=IA32W-G09RevA.02|State=1-A|HF=-611.1501396|RMSD
 =8.879e-009|PG=C01 [X(C13H16N2)]||@


 ACTORS ARE SO FORTUNATE.  THEY CAN CHOOSE WHETHER
 THEY WILL APPEAR IN A TRAGEDY OR IN COMEDY,
 WHETHER THEY WILL SUFFER OF MAKE MERRY,
 LAUGH OR SHED TEARS.  BUT IN REAL LIFE IT IS DIFFERENT.
 MOST MEN AND WOMEN ARE FORCED TO PERFORM
 PARTS FOR WHICH THEY HAVE NO QUALIFICATIONS.
 THE WORLD IS A STAGE, BUT THE PLAY IS BADLY CAST.

                                   -- OSCAR WILDE
 Job cpu time:  0 days  0 hours  5 minutes 59.0 seconds.
 File lengths (MBytes):  RWF=     64 Int=      0 D2E=      0 Chk=      5 Scr=      1
 Normal termination of Gaussian 09 at Wed Dec 25 20:23:56 2024.
