 Entering Link 1 = C:\G09W\l1.exe PID=     10444.
  
 Copyright (c) 1988,1990,1992,1993,1995,1998,2003,2009, Gaussian, Inc.
                  All Rights Reserved.
  
 This is part of the Gaussian(R) 09 program.  It is based on
 the Gaussian(R) 03 system (copyright 2003, Gaussian, Inc.),
 the Gaussian(R) 98 system (copyright 1998, Gaussian, Inc.),
 the Gaussian(R) 94 system (copyright 1995, Gaussian, Inc.),
 the Gaussian 92(TM) system (copyright 1992, Gaussian, Inc.),
 the Gaussian 90(TM) system (copyright 1990, Gaussian, Inc.),
 the Gaussian 88(TM) system (copyright 1988, Gaussian, Inc.),
 the Gaussian 86(TM) system (copyright 1986, Carnegie Mellon
 University), and the Gaussian 82(TM) system (copyright 1983,
 Carnegie Mellon University). Gaussian is a federally registered
 trademark of Gaussian, Inc.
  
 This software contains proprietary and confidential information,
 including trade secrets, belonging to Gaussian, Inc.
  
 This software is provided under written license and may be
 used, copied, transmitted, or stored only in accord with that
 written license.
  
 The following legend is applicable only to US Government
 contracts under FAR:
  
                    RESTRICTED RIGHTS LEGEND
  
 Use, reproduction and disclosure by the US Government is
 subject to restrictions as set forth in subparagraphs (a)
 and (c) of the Commercial Computer Software - Restricted
 Rights clause in FAR 52.227-19.
  
 Gaussian, Inc.
 340 Quinnipiac St., Bldg. 40, Wallingford CT 06492
  
  
 ---------------------------------------------------------------
 Warning -- This program may not be used in any manner that
 competes with the business of Gaussian, Inc. or will provide
 assistance to any competitor of Gaussian, Inc.  The licensee
 of this program is prohibited from giving any competitor of
 Gaussian, Inc. access to this program.  By using this program,
 the user acknowledges that Gaussian, Inc. is engaged in the
 business of creating and licensing software in the field of
 computational chemistry and represents and warrants to the
 licensee that it is not a competitor of Gaussian, Inc. and that
 it will not use this program in any manner prohibited above.
 ---------------------------------------------------------------
  

 Cite this work as:
 Gaussian 09, Revision A.02,
 M. J. Frisch, G. W. Trucks, H. B. Schlegel, G. E. Scuseria, 
 M. A. Robb, J. R. Cheeseman, G. Scalmani, V. Barone, B. Mennucci, 
 G. A. Petersson, H. Nakatsuji, M. Caricato, X. Li, H. P. Hratchian, 
 A. F. Izmaylov, J. Bloino, G. Zheng, J. L. Sonnenberg, M. Hada, 
 M. Ehara, K. Toyota, R. Fukuda, J. Hasegawa, M. Ishida, T. Nakajima, 
 Y. Honda, O. Kitao, H. Nakai, T. Vreven, J. A. Montgomery, Jr., 
 J. E. Peralta, F. Ogliaro, M. Bearpark, J. J. Heyd, E. Brothers, 
 K. N. Kudin, V. N. Staroverov, R. Kobayashi, J. Normand, 
 K. Raghavachari, A. Rendell, J. C. Burant, S. S. Iyengar, J. Tomasi, 
 M. Cossi, N. Rega, J. M. Millam, M. Klene, J. E. Knox, J. B. Cross, 
 V. Bakken, C. Adamo, J. Jaramillo, R. Gomperts, R. E. Stratmann, 
 O. Yazyev, A. J. Austin, R. Cammi, C. Pomelli, J. W. Ochterski, 
 R. L. Martin, K. Morokuma, V. G. Zakrzewski, G. A. Voth, 
 P. Salvador, J. J. Dannenberg, S. Dapprich, A. D. Daniels, 
 O. Farkas, J. B. Foresman, J. V. Ortiz, J. Cioslowski, 
 and D. J. Fox, Gaussian, Inc., Wallingford CT, 2009.
 
 ******************************************
 Gaussian 09:  IA32W-G09RevA.02 11-Jun-2009
                17-Dec-2024 
 ******************************************
 %chk=C:\G09W\Hw5\energy1.chk
 ----------------------------------
 # td b3lyp/3-21g geom=connectivity
 ----------------------------------
 1/38=1,57=2/1;
 2/12=2,17=6,18=5,40=1/2;
 3/5=5,11=2,16=1,25=1,30=1,74=-5/1,2,8,3;
 4//1;
 5/5=2,38=5/2;
 8/6=1,10=1/1;
 9/42=1/14;
 6/7=2,8=2,9=2,10=2/1;
 99/5=1,9=1/99;
 -------------------
 Title Card Required
 -------------------
 Symbolic Z-matrix:
 Charge =  0 Multiplicity = 1
 C                    -2.94548  -0.0354   -0.0594 
 C                    -2.29589  -0.08012   1.16643 
 C                    -0.91572  -0.06864   1.21502 
 C                    -0.16322  -0.01423   0.05156 
 C                    -0.82335   0.03008  -1.17176 
 C                    -2.20099   0.02054  -1.23187 
 H                    -2.8702   -0.12235   2.06955 
 H                    -0.40121  -0.09918   2.15223 
 H                    -0.25386   0.07153  -2.07835 
 H                    -2.70386   0.05497  -2.17706 
 C                    -4.37264  -0.04632  -0.11712 
 N                    -5.51226  -0.055    -0.16353 
 N                     1.25787  -0.01042   0.13828 
 C                     1.98649   1.21842  -0.25564 
 H                     1.69423   1.5469   -1.25202 
 C                     1.98336  -1.24074  -0.29322 
 H                     1.41033  -1.77223  -1.04474 
 C                     2.21658  -2.1521    0.91383 
 H                     2.81093  -1.63149   1.65466 
 H                     1.2714   -2.42797   1.36694 
 H                     2.73258  -3.05923   0.61714 
 C                     1.75094   2.34541   0.7492 
 H                     0.70814   2.63935   0.7665 
 H                     2.03023   2.00527   1.73861 
 H                     2.34498   3.21513   0.48957 
 C                     3.437     0.71401  -0.28961 
 H                     4.08336   1.36252  -0.86614 
 H                     3.81249   0.64951   0.72437 
 C                     3.30222  -0.69522  -0.89979 
 H                     4.14511  -1.33401  -0.67315 
 H                     3.21035  -0.61497  -1.97698 
 
                          Input orientation:                          
 ---------------------------------------------------------------------
 Center     Atomic      Atomic             Coordinates (Angstroms)
 Number     Number       Type             X           Y           Z
 ---------------------------------------------------------------------
      1          6           0       -2.945476   -0.035404   -0.059402
      2          6           0       -2.295893   -0.080116    1.166426
      3          6           0       -0.915724   -0.068637    1.215024
      4          6           0       -0.163220   -0.014229    0.051556
      5          6           0       -0.823350    0.030083   -1.171763
      6          6           0       -2.200986    0.020537   -1.231867
      7          1           0       -2.870204   -0.122351    2.069546
      8          1           0       -0.401207   -0.099183    2.152225
      9          1           0       -0.253859    0.071526   -2.078348
     10          1           0       -2.703858    0.054968   -2.177055
     11          6           0       -4.372643   -0.046321   -0.117123
     12          7           0       -5.512258   -0.054997   -0.163533
     13          7           0        1.257874   -0.010422    0.138276
     14          6           0        1.986488    1.218424   -0.255636
     15          1           0        1.694226    1.546898   -1.252017
     16          6           0        1.983358   -1.240742   -0.293222
     17          1           0        1.410327   -1.772225   -1.044743
     18          6           0        2.216580   -2.152096    0.913833
     19          1           0        2.810928   -1.631494    1.654657
     20          1           0        1.271396   -2.427971    1.366937
     21          1           0        2.732584   -3.059233    0.617135
     22          6           0        1.750936    2.345414    0.749196
     23          1           0        0.708139    2.639346    0.766496
     24          1           0        2.030225    2.005272    1.738609
     25          1           0        2.344975    3.215125    0.489573
     26          6           0        3.436997    0.714011   -0.289614
     27          1           0        4.083364    1.362515   -0.866140
     28          1           0        3.812488    0.649508    0.724366
     29          6           0        3.302215   -0.695220   -0.899793
     30          1           0        4.145115   -1.334013   -0.673154
     31          1           0        3.210349   -0.614974   -1.976979
 ---------------------------------------------------------------------
                    Distance matrix (angstroms):
                    1          2          3          4          5
     1  C    0.000000
     2  C    1.388024   0.000000
     3  C    2.396906   1.381072   0.000000
     4  C    2.784548   2.407399   1.386680   0.000000
     5  C    2.396884   2.765439   2.390613   1.390771   0.000000
     6  C    1.389989   2.402280   2.765344   2.408500   1.378980
     7  H    2.132052   1.071094   2.133796   3.378126   3.836526
     8  H    3.371745   2.135883   1.069582   2.115813   3.353179
     9  H    3.366360   3.836855   3.362144   2.133556   1.071417
    10  H    2.133307   3.370986   3.836522   3.380286   2.132497
    11  C    1.428375   2.441625   3.704781   4.212924   3.703456
    12  N    2.568968   3.480578   4.798826   5.353516   4.796835
    13  N    4.208070   3.700163   2.426377   1.423743   2.459540
    14  C    5.092628   4.695450   3.498886   2.497007   3.185378
    15  H    5.045081   4.941365   3.938030   2.754365   2.940299
    16  C    5.079460   4.667935   3.471788   2.496198   3.203817
    17  H    4.791708   4.635576   3.663232   2.601629   2.872936
    18  C    5.663426   4.971852   3.773969   3.313223   4.284016
    19  H    6.214635   5.359549   4.064940   3.745802   4.894636
    20  H    5.053794   4.275299   3.220719   3.100726   4.107918
    21  H    6.468509   5.870472   4.755133   4.240001   5.038720
    22  C    5.327139   4.736465   3.627081   3.117469   3.959519
    23  H    4.602749   4.071809   3.189244   2.883031   3.593127
    24  H    5.670520   4.836479   3.640584   3.425746   4.529297
    25  H    6.233473   5.731876   4.684179   4.112375   4.789866
    26  C    6.430442   5.967974   4.671472   3.688942   4.404146
    27  H    7.211768   6.848900   5.600921   4.557528   5.093586
    28  H    6.837651   6.167665   4.807543   4.086499   5.046780
    29  C    6.338395   5.998869   4.759839   3.657602   4.197656
    30  H    7.234608   6.814903   5.547836   4.563856   5.176390
    31  H    6.473576   6.362843   5.245174   3.982062   4.163556
                    6          7          8          9         10
     6  C    0.000000
     7  H    3.371587   0.000000
     8  H    3.834790   2.470490   0.000000
     9  H    2.123778   4.907940   4.236579   0.000000
    10  H    1.071189   4.253555   4.905979   2.452042   0.000000
    11  C    2.441970   2.654171   4.574389   4.563406   2.653003
    12  N    3.480167   3.460004   5.611375   5.597614   3.457380
    13  N    3.720479   4.558877   2.610827   2.684301   4.589156
    14  C    4.463507   5.549018   3.637990   3.107541   5.200464
    15  H    4.183642   5.886696   4.323111   2.579647   4.735472
    16  C    4.469968   5.512761   3.601322   3.148629   5.215140
    17  H    4.036161   5.544712   4.037490   2.690218   4.641905
    18  C    5.370219   5.597402   3.549771   4.472215   6.215741
    19  H    6.015024   5.892784   3.593517   5.121379   6.923802
    20  H    4.980603   4.791909   2.972799   4.521491   5.876011
    21  H    6.102778   6.490455   4.575920   5.097659   6.860076
    22  C    4.994732   5.402603   3.546303   4.145452   5.801231
    23  H    4.394841   4.704195   3.263500   3.951237   5.194731
    24  H    5.537693   5.352616   3.242171   4.850317   6.445747
    25  H    5.816744   6.390082   4.614170   4.819790   6.525964
    26  C    5.758090   6.785715   4.621220   4.151479   6.458086
    27  H    6.436437   7.692541   5.599863   4.684827   7.035237
    28  H    6.354866   6.860295   4.511601   4.972368   7.157827
    29  C    5.559479   6.873420   4.835846   3.823945   6.186040
    30  H    6.513061   7.629235   5.493325   4.827119   7.148386
    31  H    5.499237   7.320530   5.509964   3.533029   5.955392
                   11         12         13         14         15
    11  C    0.000000
    12  N    1.140593   0.000000
    13  N    5.636421   6.777003   0.000000
    14  C    6.485161   7.606660   1.481927   0.000000
    15  H    6.374420   7.462190   2.132736   1.089076   0.000000
    16  C    6.469652   7.589932   1.492047   2.459455   2.962064
    17  H    6.105896   7.186626   2.127610   3.146209   3.337685
    18  C    6.993927   8.080438   2.471310   3.575053   4.318138
    19  H    7.566748   8.664097   2.709107   3.528591   4.449489
    20  H    6.303163   7.347878   2.711888   4.054664   4.778838
    21  H    7.752485   8.809784   3.420427   4.429079   5.078224
    22  C    6.630922   7.703832   2.483203   1.528162   2.155388
    23  H    5.814459   6.842352   2.778154   2.167475   2.498040
    24  H    6.974919   8.046857   2.687120   2.144308   3.044149
    25  H    7.492096   8.535593   3.421893   2.161172   2.497917
    26  C    7.848461   8.983119   2.335909   1.536087   2.158048
    27  H    8.605225   9.725171   3.298060   2.188691   2.427113
    28  H    8.257642   9.393380   2.702788   2.149034   3.032892
    29  C    7.741905   8.868309   2.392878   2.410002   2.781507
    30  H    8.632469   9.755022   3.278181   3.368817   3.826433
    31  H    7.828422   8.926703   2.941419   2.796821   2.738227
                   16         17         18         19         20
    16  C    0.000000
    17  H    1.084261   0.000000
    18  C    1.530340   2.151828   0.000000
    19  H    2.152160   3.044380   1.083096   0.000000
    20  H    2.161604   2.503099   1.083874   1.757076   0.000000
    21  H    2.167256   2.483262   1.084983   1.766643   1.759479
    22  C    3.741814   4.504352   4.524547   4.214171   4.837020
    23  H    4.219510   4.820333   5.025437   4.842585   5.133760
    24  H    3.829770   4.732949   4.242487   3.720566   4.513048
    25  H    4.538533   5.301071   5.385494   5.006421   5.810927
    26  C    2.436009   3.295297   3.339502   3.110232   4.160053
    27  H    3.393406   4.123545   4.359550   4.115532   5.221262
    28  H    2.820327   3.842514   3.229831   2.659236   4.042391
    29  C    1.550776   2.181786   2.567164   2.764631   3.502102
    30  H    2.196871   2.794490   2.628124   2.699491   3.690119
    31  H    2.175346   2.334175   3.421566   3.792312   4.269458
                   21         22         23         24         25
    21  H    0.000000
    22  C    5.494659   0.000000
    23  H    6.049338   1.083569   0.000000
    24  H    5.234522   1.082884   1.759251   0.000000
    25  H    6.287613   1.084751   1.757111   1.767174   0.000000
    26  C    3.944079   2.565814   3.502706   2.785687   2.838171
    27  H    4.855571   3.002602   3.960801   3.378348   2.879604
    28  H    3.864253   2.669590   3.687575   2.458302   2.964981
    29  C    2.866026   3.790922   4.541484   3.983940   4.258808
    30  H    2.576135   4.614472   5.447291   4.630355   5.028628
    31  H    3.596121   4.280866   4.937439   4.697231   4.637069
                   26         27         28         29         30
    26  C    0.000000
    27  H    1.082003   0.000000
    28  H    1.083194   1.763934   0.000000
    29  C    1.541563   2.201272   2.169462   0.000000
    30  H    2.200667   2.704130   2.449093   1.081620   0.000000
    31  H    2.159808   2.430346   3.042820   1.084070   1.758057
                   31
    31  H    0.000000
 Stoichiometry    C13H16N2
 Framework group  C1[X(C13H16N2)]
 Deg. of freedom    87
 Full point group                 C1      NOp   1
 Largest Abelian subgroup         C1      NOp   1
 Largest concise Abelian subgroup C1      NOp   1
                         Standard orientation:                         
 ---------------------------------------------------------------------
 Center     Atomic      Atomic             Coordinates (Angstroms)
 Number     Number       Type             X           Y           Z
 ---------------------------------------------------------------------
      1          6           0       -2.945476   -0.035404   -0.059402
      2          6           0       -2.295893   -0.080116    1.166426
      3          6           0       -0.915724   -0.068637    1.215024
      4          6           0       -0.163220   -0.014229    0.051556
      5          6           0       -0.823350    0.030083   -1.171763
      6          6           0       -2.200986    0.020537   -1.231867
      7          1           0       -2.870204   -0.122351    2.069546
      8          1           0       -0.401207   -0.099183    2.152225
      9          1           0       -0.253859    0.071526   -2.078348
     10          1           0       -2.703858    0.054968   -2.177055
     11          6           0       -4.372643   -0.046321   -0.117123
     12          7           0       -5.512258   -0.054997   -0.163533
     13          7           0        1.257874   -0.010422    0.138276
     14          6           0        1.986488    1.218424   -0.255636
     15          1           0        1.694226    1.546898   -1.252017
     16          6           0        1.983358   -1.240742   -0.293222
     17          1           0        1.410327   -1.772225   -1.044743
     18          6           0        2.216580   -2.152096    0.913833
     19          1           0        2.810928   -1.631494    1.654657
     20          1           0        1.271396   -2.427971    1.366937
     21          1           0        2.732584   -3.059233    0.617135
     22          6           0        1.750936    2.345414    0.749196
     23          1           0        0.708139    2.639346    0.766496
     24          1           0        2.030225    2.005272    1.738609
     25          1           0        2.344975    3.215125    0.489573
     26          6           0        3.436997    0.714011   -0.289614
     27          1           0        4.083364    1.362515   -0.866140
     28          1           0        3.812488    0.649508    0.724366
     29          6           0        3.302215   -0.695220   -0.899793
     30          1           0        4.145115   -1.334013   -0.673154
     31          1           0        3.210349   -0.614974   -1.976979
 ---------------------------------------------------------------------
 Rotational constants (GHZ):      1.4279018      0.3114406      0.2958724
 Standard basis: 3-21G (6D, 7F)
 There are   167 symmetry adapted basis functions of A   symmetry.
 Integral buffers will be    262144 words long.
 Raffenetti 2 integral format.
 Two-electron integral symmetry is turned on.
   167 basis functions,   273 primitive gaussians,   167 cartesian basis functions
    54 alpha electrons       54 beta electrons
       nuclear repulsion energy       949.7959894667 Hartrees.
 NAtoms=   31 NActive=   31 NUniq=   31 SFac= 7.50D-01 NAtFMM=   80 NAOKFM=F Big=F
 One-electron integrals computed using PRISM.
 NBasis=   167 RedAO= T  NBF=   167
 NBsUse=   167 1.00D-06 NBFU=   167
 Harris functional with IExCor=  402 diagonalized for initial guess.
 ExpMin= 1.83D-01 ExpMax= 2.43D+02 ExpMxC= 2.43D+02 IAcc=1 IRadAn=         1 AccDes= 0.00D+00
 HarFok:  IExCor=  402 AccDes= 0.00D+00 IRadAn=         1 IDoV= 1
 ScaDFX=  1.000000  1.000000  1.000000  1.000000
 FoFCou: FMM=F IPFlag=           0 FMFlag=      100000 FMFlg1=           0
         NFxFlg=           0 DoJE=T BraDBF=F KetDBF=T FulRan=T
         Omega=  0.000000  0.000000  1.000000  0.000000  0.000000 ICntrl=     500 IOpCl=  0
         NMat0=    1 NMatS0=    1 NMatT0=    0 NMatD0=    1 NMtDS0=    0 NMtDT0=    0
         I1Cent=           4 NGrid=           0.
 Petite list used in FoFCou.
 Initial guess orbital symmetries:
       Occupied  (A) (A) (A) (A) (A) (A) (A) (A) (A) (A) (A) (A)
                 (A) (A) (A) (A) (A) (A) (A) (A) (A) (A) (A) (A)
                 (A) (A) (A) (A) (A) (A) (A) (A) (A) (A) (A) (A)
                 (A) (A) (A) (A) (A) (A) (A) (A) (A) (A) (A) (A)
                 (A) (A) (A) (A) (A) (A)
       Virtual   (A) (A) (A) (A) (A) (A) (A) (A) (A) (A) (A) (A)
                 (A) (A) (A) (A) (A) (A) (A) (A) (A) (A) (A) (A)
                 (A) (A) (A) (A) (A) (A) (A) (A) (A) (A) (A) (A)
                 (A) (A) (A) (A) (A) (A) (A) (A) (A) (A) (A) (A)
                 (A) (A) (A) (A) (A) (A) (A) (A) (A) (A) (A) (A)
                 (A) (A) (A) (A) (A) (A) (A) (A) (A) (A) (A) (A)
                 (A) (A) (A) (A) (A) (A) (A) (A) (A) (A) (A) (A)
                 (A) (A) (A) (A) (A) (A) (A) (A) (A) (A) (A) (A)
                 (A) (A) (A) (A) (A) (A) (A) (A) (A) (A) (A) (A)
                 (A) (A) (A) (A) (A)
 The electronic state of the initial guess is 1-A.
 Requested convergence on RMS density matrix=1.00D-08 within 128 cycles.
 Requested convergence on MAX density matrix=1.00D-06.
 Requested convergence on             energy=1.00D-06.
 No special actions if energy rises.
 Integral accuracy reduced to 1.0D-05 until final iterations.
 Initial convergence to 1.0D-05 achieved.  Increase integral accuracy.
 SCF Done:  E(RB3LYP) =  -611.147757186     A.U. after   16 cycles
             Convg  =    0.3658D-08             -V/T =  2.0074
 ExpMin= 1.83D-01 ExpMax= 2.43D+02 ExpMxC= 2.43D+02 IAcc=1 IRadAn=         1 AccDes= 0.00D+00
 HarFok:  IExCor=  205 AccDes= 0.00D+00 IRadAn=         1 IDoV=-2
 ScaDFX=  1.000000  1.000000  1.000000  1.000000
 Range of M.O.s used for correlation:    16   167
 NBasis=   167 NAE=    54 NBE=    54 NFC=    15 NFV=     0
 NROrb=    152 NOA=    39 NOB=    39 NVA=   113 NVB=   113
 Would need an additional   268100000 words for in-memory AO integral storage.
 Orbital symmetries:
       Occupied  (A) (A) (A) (A) (A) (A) (A) (A) (A) (A) (A) (A)
                 (A) (A) (A) (A) (A) (A) (A) (A) (A) (A) (A) (A)
                 (A) (A) (A) (A) (A) (A) (A) (A) (A) (A) (A) (A)
                 (A) (A) (A) (A) (A) (A) (A) (A) (A) (A) (A) (A)
                 (A) (A) (A) (A) (A) (A)
       Virtual   (A) (A) (A) (A) (A) (A) (A) (A) (A) (A) (A) (A)
                 (A) (A) (A) (A) (A) (A) (A) (A) (A) (A) (A) (A)
                 (A) (A) (A) (A) (A) (A) (A) (A) (A) (A) (A) (A)
                 (A) (A) (A) (A) (A) (A) (A) (A) (A) (A) (A) (A)
                 (A) (A) (A) (A) (A) (A) (A) (A) (A) (A) (A) (A)
                 (A) (A) (A) (A) (A) (A) (A) (A) (A) (A) (A) (A)
                 (A) (A) (A) (A) (A) (A) (A) (A) (A) (A) (A) (A)
                 (A) (A) (A) (A) (A) (A) (A) (A) (A) (A) (A) (A)
                 (A) (A) (A) (A) (A) (A) (A) (A) (A) (A) (A) (A)
                 (A) (A) (A) (A) (A)
    12 initial guesses have been made.
 Convergence on wavefunction:    0.001000000000000
 Iteration     1 Dimension    12 NMult    12
 CISAX will form    12 AO SS matrices at one time.
 No map to state      3
 Iteration     2 Dimension    18 NMult    18
 Iteration     3 Dimension    24 NMult    24
 Iteration     4 Dimension    28 NMult    28
 Iteration     5 Dimension    30 NMult    30
 Iteration     6 Dimension    32 NMult    32
 ***********************************************************************
 Excited states from <AA,BB:AA,BB> singles matrix:
 ***********************************************************************
 
 Ground to excited state transition electric dipole moments (Au):
       state          X           Y           Z        Dip. S.      Osc.
         1         0.0532     -0.0045     -0.0103      0.0030      0.0003
         2         0.0012      0.0132      0.0133      0.0004      0.0000
         3         0.0890      0.0116     -0.1392      0.0274      0.0036
 Ground to excited state transition velocity dipole moments (Au):
       state          X           Y           Z        Dip. S.      Osc.
         1        -0.0055      0.0022      0.0016      0.0000      0.0002
         2        -0.0006     -0.0040     -0.0037      0.0000      0.0001
         3        -0.0163     -0.0019      0.0233      0.0008      0.0027
 Ground to excited state transition magnetic dipole moments (Au):
       state          X           Y           Z
         1         0.2755     -0.0011     -0.0815
         2         0.0779     -0.0215     -0.1859
         3        -0.0031     -0.0317      0.0031
 <0|del|b> * <b|rxdel|0> + <0|del|b> * <b|delr+rdel|0>
 Rotatory Strengths (R) in cgs (10**-40 erg-esu-cm/Gauss)
       state          XX          YY          ZZ    R(velocity)
         1        -0.3252     -4.7066     -4.0071     -3.0130
 Total R(velocity) tensor for State=          1
                 1             2             3 
      1  -0.325215D+00 -0.149186D+00 -0.907758D+00
      2  -0.171248D+01 -0.470658D+01  0.684059D+00
      3  -0.116081D+01  0.179185D-01 -0.400713D+01
 R(velocity) tensor in inp. orien. for State=          1
                 1             2             3 
      1  -0.325215D+00 -0.149186D+00 -0.907758D+00
      2  -0.171248D+01 -0.470658D+01  0.684059D+00
      3  -0.116081D+01  0.179185D-01 -0.400713D+01
         2         1.4528      1.6688      0.1455      1.0890
 Total R(velocity) tensor for State=          2
                 1             2             3 
      1   0.145285D+01 -0.450504D-02 -0.222529D+00
      2   0.946734D+00  0.166880D+01 -0.195626D+01
      3   0.358776D+00 -0.186098D+00  0.145472D+00
 R(velocity) tensor in inp. orien. for State=          2
                 1             2             3 
      1   0.145285D+01 -0.450504D-02 -0.222529D+00
      2   0.946734D+00  0.166880D+01 -0.195626D+01
      3   0.358776D+00 -0.186098D+00  0.145472D+00
         3        -0.0591      0.2209      0.4935      0.2184
 Total R(velocity) tensor for State=          3
                 1             2             3 
      1  -0.590571D-01 -0.131773D+01 -0.148451D+00
      2  -0.691855D+00  0.220882D+00 -0.467371D+00
      3   0.989242D-02  0.599074D+01  0.493501D+00
 R(velocity) tensor in inp. orien. for State=          3
                 1             2             3 
      1  -0.590571D-01 -0.131773D+01 -0.148451D+00
      2  -0.691855D+00  0.220882D+00 -0.467371D+00
      3   0.989251D-02  0.599074D+01  0.493501D+00
 1/2[<0|r|b>*<b|rxdel|0> + (<0|rxdel|b>*<b|r|0>)*]
 Rotatory Strengths (R) in cgs (10**-40 erg-esu-cm/Gauss)
       state          XX          YY          ZZ     R(length)     R(au)
         1       -10.3623     -0.0035     -0.5913     -3.6524     -0.0077
         2        -0.0688      0.2004      1.7482      0.6266      0.0013
         3         0.1956      0.2595      0.3082      0.2545      0.0005
  1/2[<0|del|b>*<b|r|0> + (<0|r|b>*<b|del|0>)*] (Au)
       state          X           Y           Z        Dip. S.   Osc.(frdel)
         1        -0.0003      0.0000      0.0000      0.0003      0.0002
         2         0.0000     -0.0001      0.0000      0.0001      0.0001
         3        -0.0015      0.0000     -0.0032      0.0047      0.0031
 Ground to excited state transition densities written to RWF  633

 Excitation energies and oscillator strengths:
 
 Excited State   1:      Singlet-A      3.5312 eV  351.11 nm  f=0.0003  <S**2>=0.000
      54 -> 55         0.70362
 This state for optimization and/or second-order correction.
 Copying the excited state density for this state as the 1-particle RhoCI density.
 
 Excited State   2:      Singlet-A      4.2809 eV  289.62 nm  f=0.0000  <S**2>=0.000
      54 -> 56         0.70667
 
 Excited State   3:      Singlet-A      5.3882 eV  230.10 nm  f=0.0036  <S**2>=0.000
      52 -> 55         0.53388
      53 -> 56         0.45956
 SavETr:  write IOETrn=   770 NScale= 10 NData=  16 NLR=1 LETran=      62.

 **********************************************************************

            Population analysis using the SCF density.

 **********************************************************************

 Orbital symmetries:
       Occupied  (A) (A) (A) (A) (A) (A) (A) (A) (A) (A) (A) (A)
                 (A) (A) (A) (A) (A) (A) (A) (A) (A) (A) (A) (A)
                 (A) (A) (A) (A) (A) (A) (A) (A) (A) (A) (A) (A)
                 (A) (A) (A) (A) (A) (A) (A) (A) (A) (A) (A) (A)
                 (A) (A) (A) (A) (A) (A)
       Virtual   (A) (A) (A) (A) (A) (A) (A) (A) (A) (A) (A) (A)
                 (A) (A) (A) (A) (A) (A) (A) (A) (A) (A) (A) (A)
                 (A) (A) (A) (A) (A) (A) (A) (A) (A) (A) (A) (A)
                 (A) (A) (A) (A) (A) (A) (A) (A) (A) (A) (A) (A)
                 (A) (A) (A) (A) (A) (A) (A) (A) (A) (A) (A) (A)
                 (A) (A) (A) (A) (A) (A) (A) (A) (A) (A) (A) (A)
                 (A) (A) (A) (A) (A) (A) (A) (A) (A) (A) (A) (A)
                 (A) (A) (A) (A) (A) (A) (A) (A) (A) (A) (A) (A)
                 (A) (A) (A) (A) (A) (A) (A) (A) (A) (A) (A) (A)
                 (A) (A) (A) (A) (A)
 The electronic state is 1-A.
 Alpha  occ. eigenvalues --  -14.24753 -14.24273 -10.17425 -10.17399 -10.15757
 Alpha  occ. eigenvalues --  -10.15656 -10.15634 -10.15068 -10.14951 -10.14165
 Alpha  occ. eigenvalues --  -10.13784 -10.12228 -10.12072 -10.10671 -10.10362
 Alpha  occ. eigenvalues --   -0.94754  -0.93474  -0.88600  -0.81107  -0.78078
 Alpha  occ. eigenvalues --   -0.77595  -0.75549  -0.71330  -0.65156  -0.64911
 Alpha  occ. eigenvalues --   -0.63905  -0.58400  -0.57635  -0.56922  -0.52826
 Alpha  occ. eigenvalues --   -0.49851  -0.48062  -0.46739  -0.45350  -0.45074
 Alpha  occ. eigenvalues --   -0.43594  -0.43394  -0.41178  -0.41070  -0.40025
 Alpha  occ. eigenvalues --   -0.38811  -0.38136  -0.37159  -0.36889  -0.36403
 Alpha  occ. eigenvalues --   -0.34388  -0.34331  -0.33833  -0.33500  -0.33144
 Alpha  occ. eigenvalues --   -0.33012  -0.27589  -0.26094  -0.20570
 Alpha virt. eigenvalues --   -0.04030  -0.01450   0.05408   0.08879   0.09964
 Alpha virt. eigenvalues --    0.10717   0.12193   0.13799   0.14519   0.14913
 Alpha virt. eigenvalues --    0.16598   0.16811   0.17202   0.18308   0.18976
 Alpha virt. eigenvalues --    0.19021   0.20010   0.20508   0.21295   0.21772
 Alpha virt. eigenvalues --    0.22383   0.22696   0.23321   0.24037   0.24578
 Alpha virt. eigenvalues --    0.26321   0.27898   0.29636   0.31129   0.33225
 Alpha virt. eigenvalues --    0.33981   0.35464   0.38138   0.39439   0.50349
 Alpha virt. eigenvalues --    0.53899   0.59545   0.64376   0.65962   0.66191
 Alpha virt. eigenvalues --    0.67821   0.69124   0.69927   0.70494   0.71124
 Alpha virt. eigenvalues --    0.71890   0.72965   0.73883   0.74822   0.75841
 Alpha virt. eigenvalues --    0.76015   0.76718   0.77467   0.78297   0.78813
 Alpha virt. eigenvalues --    0.80295   0.81293   0.83974   0.84158   0.86867
 Alpha virt. eigenvalues --    0.91247   0.91951   0.92778   0.93641   0.94471
 Alpha virt. eigenvalues --    0.95886   0.96459   0.99587   1.00000   1.00462
 Alpha virt. eigenvalues --    1.00772   1.04156   1.05547   1.06346   1.07810
 Alpha virt. eigenvalues --    1.08265   1.09138   1.10243   1.12097   1.12656
 Alpha virt. eigenvalues --    1.13377   1.14421   1.16566   1.17032   1.18296
 Alpha virt. eigenvalues --    1.18897   1.20772   1.24658   1.27979   1.28401
 Alpha virt. eigenvalues --    1.33336   1.35138   1.40477   1.41125   1.49671
 Alpha virt. eigenvalues --    1.51213   1.52639   1.54173   1.57146   1.61637
 Alpha virt. eigenvalues --    1.74265   1.76560   1.78617   1.83427   1.92974
 Alpha virt. eigenvalues --    1.95946   1.98728   2.20074   2.38742   2.42812
 Alpha virt. eigenvalues --    2.50478   2.97060   2.99840
          Condensed to atoms (all electrons):
              1          2          3          4          5          6
     1  C    5.428143   0.445992  -0.083672  -0.030554  -0.083778   0.445698
     2  C    0.445992   5.186217   0.396855  -0.071838  -0.017895  -0.061259
     3  C   -0.083672   0.396855   5.241610   0.448666  -0.116406  -0.021081
     4  C   -0.030554  -0.071838   0.448666   5.010993   0.338987  -0.047116
     5  C   -0.083778  -0.017895  -0.116406   0.338987   5.356275   0.378812
     6  C    0.445698  -0.061259  -0.021081  -0.047116   0.378812   5.186895
     7  H   -0.044193   0.396055  -0.032562   0.004147  -0.000304   0.003838
     8  H    0.004615  -0.037150   0.378135  -0.041988   0.006246  -0.000520
     9  H    0.004635  -0.000166   0.004050  -0.048931   0.396665  -0.042692
    10  H   -0.043104   0.003764  -0.000216   0.003511  -0.032392   0.395733
    11  C    0.069538  -0.077602   0.004083  -0.000132   0.004488  -0.077464
    12  N   -0.116969  -0.000782  -0.000006   0.000000  -0.000007  -0.000791
    13  N   -0.000330   0.004573  -0.069990   0.324267  -0.073017   0.005089
    14  C    0.000007  -0.000129   0.000720  -0.070686  -0.002238   0.000292
    15  H    0.000001   0.000026  -0.000313  -0.004094   0.004709  -0.000386
    16  C    0.000010  -0.000109   0.001027  -0.071670  -0.003331   0.000187
    17  H    0.000000   0.000041  -0.000480  -0.003477   0.005689  -0.000455
    18  C    0.000000  -0.000006   0.000597  -0.000721  -0.000397   0.000012
    19  H    0.000000   0.000002  -0.000026   0.000023   0.000011   0.000000
    20  H   -0.000003   0.000035   0.001334   0.002063   0.000066  -0.000007
    21  H    0.000000   0.000000  -0.000034   0.000031   0.000015   0.000000
    22  C    0.000001   0.000015   0.000877  -0.003587  -0.000858   0.000008
    23  H   -0.000014  -0.000003   0.001408   0.003594   0.000103  -0.000004
    24  H    0.000000   0.000020  -0.000032   0.000019   0.000069  -0.000002
    25  H    0.000000   0.000001  -0.000025   0.000122   0.000023  -0.000001
    26  C    0.000000   0.000001  -0.000116   0.005378  -0.000057  -0.000001
    27  H    0.000000   0.000000   0.000000  -0.000086   0.000006   0.000000
    28  H    0.000000   0.000000   0.000004  -0.000151   0.000002   0.000000
    29  C    0.000000   0.000001  -0.000058   0.004969  -0.000099   0.000003
    30  H    0.000000   0.000000   0.000001  -0.000062  -0.000001   0.000000
    31  H    0.000000   0.000000   0.000002  -0.000200   0.000022   0.000000
              7          8          9         10         11         12
     1  C   -0.044193   0.004615   0.004635  -0.043104   0.069538  -0.116969
     2  C    0.396055  -0.037150  -0.000166   0.003764  -0.077602  -0.000782
     3  C   -0.032562   0.378135   0.004050  -0.000216   0.004083  -0.000006
     4  C    0.004147  -0.041988  -0.048931   0.003511  -0.000132   0.000000
     5  C   -0.000304   0.006246   0.396665  -0.032392   0.004488  -0.000007
     6  C    0.003838  -0.000520  -0.042692   0.395733  -0.077464  -0.000791
     7  H    0.477325  -0.004367   0.000002  -0.000051  -0.006306  -0.000109
     8  H   -0.004367   0.487885  -0.000043   0.000003  -0.000072   0.000000
     9  H    0.000002  -0.000043   0.495128  -0.004081  -0.000082   0.000000
    10  H   -0.000051   0.000003  -0.004081   0.476812  -0.006132  -0.000106
    11  C   -0.006306  -0.000072  -0.000082  -0.006132   4.954884   0.845146
    12  N   -0.000109   0.000000   0.000000  -0.000106   0.845146   6.746371
    13  N   -0.000021   0.001149  -0.007448  -0.000020   0.000000   0.000000
    14  C    0.000001  -0.000151   0.001140  -0.000001   0.000000   0.000000
    15  H    0.000000   0.000052   0.002635   0.000003   0.000000   0.000000
    16  C    0.000001  -0.000207   0.000771  -0.000001   0.000000   0.000000
    17  H    0.000000   0.000085   0.001250   0.000004   0.000000   0.000000
    18  C    0.000000  -0.000016  -0.000023   0.000000   0.000000   0.000000
    19  H    0.000000   0.000154   0.000001   0.000000   0.000000   0.000000
    20  H   -0.000001   0.000498  -0.000002   0.000000   0.000000   0.000000
    21  H    0.000000   0.000016   0.000001   0.000000   0.000000   0.000000
    22  C    0.000000  -0.000097  -0.000091   0.000000   0.000000   0.000000
    23  H   -0.000001  -0.000038  -0.000010   0.000000   0.000000   0.000000
    24  H    0.000000   0.000543   0.000003   0.000000   0.000000   0.000000
    25  H    0.000000   0.000011   0.000003   0.000000   0.000000   0.000000
    26  C    0.000000  -0.000014  -0.000107   0.000000   0.000000   0.000000
    27  H    0.000000   0.000000   0.000002   0.000000   0.000000   0.000000
    28  H    0.000000   0.000007   0.000002   0.000000   0.000000   0.000000
    29  C    0.000000  -0.000005  -0.000054   0.000000   0.000000   0.000000
    30  H    0.000000   0.000000   0.000000   0.000000   0.000000   0.000000
    31  H    0.000000   0.000000   0.000148   0.000000   0.000000   0.000000
             13         14         15         16         17         18
     1  C   -0.000330   0.000007   0.000001   0.000010   0.000000   0.000000
     2  C    0.004573  -0.000129   0.000026  -0.000109   0.000041  -0.000006
     3  C   -0.069990   0.000720  -0.000313   0.001027  -0.000480   0.000597
     4  C    0.324267  -0.070686  -0.004094  -0.071670  -0.003477  -0.000721
     5  C   -0.073017  -0.002238   0.004709  -0.003331   0.005689  -0.000397
     6  C    0.005089   0.000292  -0.000386   0.000187  -0.000455   0.000012
     7  H   -0.000021   0.000001   0.000000   0.000001   0.000000   0.000000
     8  H    0.001149  -0.000151   0.000052  -0.000207   0.000085  -0.000016
     9  H   -0.007448   0.001140   0.002635   0.000771   0.001250  -0.000023
    10  H   -0.000020  -0.000001   0.000003  -0.000001   0.000004   0.000000
    11  C    0.000000   0.000000   0.000000   0.000000   0.000000   0.000000
    12  N    0.000000   0.000000   0.000000   0.000000   0.000000   0.000000
    13  N    7.230152   0.271048  -0.049754   0.267914  -0.041713  -0.066906
    14  C    0.271048   5.292401   0.350994  -0.083260   0.001294   0.005254
    15  H   -0.049754   0.350994   0.623634   0.000567   0.001017  -0.000272
    16  C    0.267914  -0.083260   0.000567   5.295929   0.369513   0.270744
    17  H   -0.041713   0.001294   0.001017   0.369513   0.572268  -0.063674
    18  C   -0.066906   0.005254  -0.000272   0.270744  -0.063674   5.389903
    19  H    0.002825   0.000176   0.000028  -0.043062   0.004160   0.362158
    20  H   -0.001391   0.000004   0.000000  -0.037738  -0.001621   0.365804
    21  H    0.003175  -0.000138   0.000010  -0.036955   0.002468   0.333143
    22  C   -0.060633   0.279944  -0.064314   0.004743  -0.000150  -0.000068
    23  H   -0.002744  -0.038142  -0.002631   0.000005  -0.000003   0.000003
    24  H    0.004611  -0.041774   0.004852   0.000005   0.000009  -0.000055
    25  H    0.002824  -0.037197   0.002547  -0.000095   0.000003  -0.000001
    26  C   -0.066626   0.269284  -0.048229  -0.090539   0.004989   0.000379
    27  H    0.002631  -0.036503  -0.000924   0.003963  -0.000034  -0.000108
    28  H    0.001633  -0.045774   0.004415   0.000541   0.000025   0.000745
    29  C   -0.050476  -0.089639  -0.002167   0.273088  -0.037632  -0.075043
    30  H    0.002279   0.004260  -0.000127  -0.038955   0.001257  -0.001980
    31  H    0.001298   0.001036   0.002011  -0.039001  -0.004577   0.003598
             19         20         21         22         23         24
     1  C    0.000000  -0.000003   0.000000   0.000001  -0.000014   0.000000
     2  C    0.000002   0.000035   0.000000   0.000015  -0.000003   0.000020
     3  C   -0.000026   0.001334  -0.000034   0.000877   0.001408  -0.000032
     4  C    0.000023   0.002063   0.000031  -0.003587   0.003594   0.000019
     5  C    0.000011   0.000066   0.000015  -0.000858   0.000103   0.000069
     6  C    0.000000  -0.000007   0.000000   0.000008  -0.000004  -0.000002
     7  H    0.000000  -0.000001   0.000000   0.000000  -0.000001   0.000000
     8  H    0.000154   0.000498   0.000016  -0.000097  -0.000038   0.000543
     9  H    0.000001  -0.000002   0.000001  -0.000091  -0.000010   0.000003
    10  H    0.000000   0.000000   0.000000   0.000000   0.000000   0.000000
    11  C    0.000000   0.000000   0.000000   0.000000   0.000000   0.000000
    12  N    0.000000   0.000000   0.000000   0.000000   0.000000   0.000000
    13  N    0.002825  -0.001391   0.003175  -0.060633  -0.002744   0.004611
    14  C    0.000176   0.000004  -0.000138   0.279944  -0.038142  -0.041774
    15  H    0.000028   0.000000   0.000010  -0.064314  -0.002631   0.004852
    16  C   -0.043062  -0.037738  -0.036955   0.004743   0.000005   0.000005
    17  H    0.004160  -0.001621   0.002468  -0.000150  -0.000003   0.000009
    18  C    0.362158   0.365804   0.333143  -0.000068   0.000003  -0.000055
    19  H    0.530925  -0.026967  -0.024179  -0.000107  -0.000001   0.000111
    20  H   -0.026967   0.526751  -0.027026  -0.000002   0.000000   0.000001
    21  H   -0.024179  -0.027026   0.571276  -0.000002   0.000000   0.000002
    22  C   -0.000107  -0.000002  -0.000002   5.373040   0.367885   0.354388
    23  H   -0.000001   0.000000   0.000000   0.367885   0.522836  -0.027117
    24  H    0.000111   0.000001   0.000002   0.354388  -0.027117   0.530837
    25  H    0.000002   0.000000   0.000000   0.345983  -0.028374  -0.022718
    26  C    0.001743  -0.000167   0.000257  -0.057110   0.003858  -0.004725
    27  H   -0.000013   0.000002   0.000003   0.000029  -0.000081   0.000037
    28  H    0.001838  -0.000042   0.000066  -0.004919   0.000030   0.005441
    29  C   -0.003434   0.003903  -0.000592   0.005115  -0.000142  -0.000066
    30  H    0.000556   0.000082   0.001421  -0.000067   0.000001  -0.000003
    31  H    0.000031  -0.000089   0.000000  -0.000055   0.000003   0.000002
             25         26         27         28         29         30
     1  C    0.000000   0.000000   0.000000   0.000000   0.000000   0.000000
     2  C    0.000001   0.000001   0.000000   0.000000   0.000001   0.000000
     3  C   -0.000025  -0.000116   0.000000   0.000004  -0.000058   0.000001
     4  C    0.000122   0.005378  -0.000086  -0.000151   0.004969  -0.000062
     5  C    0.000023  -0.000057   0.000006   0.000002  -0.000099  -0.000001
     6  C   -0.000001  -0.000001   0.000000   0.000000   0.000003   0.000000
     7  H    0.000000   0.000000   0.000000   0.000000   0.000000   0.000000
     8  H    0.000011  -0.000014   0.000000   0.000007  -0.000005   0.000000
     9  H    0.000003  -0.000107   0.000002   0.000002  -0.000054   0.000000
    10  H    0.000000   0.000000   0.000000   0.000000   0.000000   0.000000
    11  C    0.000000   0.000000   0.000000   0.000000   0.000000   0.000000
    12  N    0.000000   0.000000   0.000000   0.000000   0.000000   0.000000
    13  N    0.002824  -0.066626   0.002631   0.001633  -0.050476   0.002279
    14  C   -0.037197   0.269284  -0.036503  -0.045774  -0.089639   0.004260
    15  H    0.002547  -0.048229  -0.000924   0.004415  -0.002167  -0.000127
    16  C   -0.000095  -0.090539   0.003963   0.000541   0.273088  -0.038955
    17  H    0.000003   0.004989  -0.000034   0.000025  -0.037632   0.001257
    18  C   -0.000001   0.000379  -0.000108   0.000745  -0.075043  -0.001980
    19  H    0.000002   0.001743  -0.000013   0.001838  -0.003434   0.000556
    20  H    0.000000  -0.000167   0.000002  -0.000042   0.003903   0.000082
    21  H    0.000000   0.000257   0.000003   0.000066  -0.000592   0.001421
    22  C    0.345983  -0.057110   0.000029  -0.004919   0.005115  -0.000067
    23  H   -0.028374   0.003858  -0.000081   0.000030  -0.000142   0.000001
    24  H   -0.022718  -0.004725   0.000037   0.005441  -0.000066  -0.000003
    25  H    0.552969  -0.002955   0.001583   0.000201  -0.000046  -0.000001
    26  C   -0.002955   5.427921   0.373287   0.369463   0.264716  -0.032620
    27  H    0.001583   0.373287   0.526967  -0.026321  -0.033526   0.000302
    28  H    0.000201   0.369463  -0.026321   0.531645  -0.043698  -0.004049
    29  C   -0.000046   0.264716  -0.033526  -0.043698   5.429319   0.380035
    30  H   -0.000001  -0.032620   0.000302  -0.004049   0.380035   0.517024
    31  H   -0.000002  -0.043932  -0.004112   0.003741   0.368726  -0.028007
             31
     1  C    0.000000
     2  C    0.000000
     3  C    0.000002
     4  C   -0.000200
     5  C    0.000022
     6  C    0.000000
     7  H    0.000000
     8  H    0.000000
     9  H    0.000148
    10  H    0.000000
    11  C    0.000000
    12  N    0.000000
    13  N    0.001298
    14  C    0.001036
    15  H    0.002011
    16  C   -0.039001
    17  H   -0.004577
    18  C    0.003598
    19  H    0.000031
    20  H   -0.000089
    21  H    0.000000
    22  C   -0.000055
    23  H    0.000003
    24  H    0.000002
    25  H   -0.000002
    26  C   -0.043932
    27  H   -0.004112
    28  H    0.003741
    29  C    0.368726
    30  H   -0.028007
    31  H    0.542938
 Mulliken atomic charges:
              1
     1  C    0.003976
     2  C   -0.166659
     3  C   -0.154350
     4  C    0.248521
     5  C   -0.161406
     6  C   -0.164786
     7  H    0.206548
     8  H    0.205267
     9  H    0.197292
    10  H    0.206275
    11  C    0.289652
    12  N   -0.472748
    13  N   -0.634398
    14  C   -0.032221
    15  H    0.175710
    16  C   -0.044089
    17  H    0.189743
    18  C   -0.523067
    19  H    0.193045
    20  H    0.194513
    21  H    0.177040
    22  C   -0.539969
    23  H    0.199580
    24  H    0.195544
    25  H    0.185142
    26  C   -0.374080
    27  H    0.192897
    28  H    0.205155
    29  C   -0.393200
    30  H    0.198654
    31  H    0.196420
 Sum of Mulliken atomic charges =   0.00000
 Mulliken charges with hydrogens summed into heavy atoms:
              1
     1  C    0.003976
     2  C    0.039889
     3  C    0.050917
     4  C    0.248521
     5  C    0.035886
     6  C    0.041489
    11  C    0.289652
    12  N   -0.472748
    13  N   -0.634398
    14  C    0.143489
    16  C    0.145654
    18  C    0.041530
    22  C    0.040297
    26  C    0.023972
    29  C    0.001874
 Sum of Mulliken charges with hydrogens summed into heavy atoms =   0.00000
 Electronic spatial extent (au):  <R**2>=           3848.3285
 Charge=              0.0000 electrons
 Dipole moment (field-independent basis, Debye):
    X=              4.9026    Y=              0.1053    Z=             -0.4982  Tot=              4.9290
 Quadrupole moment (field-independent basis, Debye-Ang):
   XX=           -115.8973   YY=            -90.8943   ZZ=            -83.4690
   XY=             -0.0564   XZ=             -2.5609   YZ=             -0.2595
 Traceless Quadrupole moment (field-independent basis, Debye-Ang):
   XX=            -19.1437   YY=              5.8592   ZZ=             13.2845
   XY=             -0.0564   XZ=             -2.5609   YZ=             -0.2595
 Octapole moment (field-independent basis, Debye-Ang**2):
  XXX=            222.7224  YYY=              1.1881  ZZZ=             -0.6231  XYY=             10.2844
  XXY=              2.3626  XXZ=              5.5537  XZZ=             -8.7670  YZZ=              0.0251
  YYZ=             -0.8236  XYZ=              0.7171
 Hexadecapole moment (field-independent basis, Debye-Ang**3):
 XXXX=          -5309.1730 YYYY=           -746.0228 ZZZZ=           -448.8653 XXXY=            -12.7683
 XXXZ=            -50.1739 YYYX=              1.8891 YYYZ=              0.5233 ZZZX=              0.4008
 ZZZY=             -1.2657 XXYY=           -790.9163 XXZZ=           -714.5232 YYZZ=           -214.1245
 XXYZ=             -4.0177 YYXZ=             -4.7408 ZZXY=              2.9983
 N-N= 9.497959894667D+02 E-N=-3.315639941895D+03  KE= 6.066740973325D+02
 1|1|UNPC-DESKTOP-K2VF0AK|SP|RTD-B3LYP-FC|3-21G|C13H16N2|MELIH|17-Dec-2
 024|0||# td b3lyp/3-21g geom=connectivity||Title Card Required||0,1|C,
 0,-2.945476,-0.035404,-0.059402|C,0,-2.295893,-0.080116,1.166426|C,0,-
 0.915724,-0.068637,1.215024|C,0,-0.16322,-0.014229,0.051556|C,0,-0.823
 35,0.030083,-1.171763|C,0,-2.200986,0.020537,-1.231867|H,0,-2.870204,-
 0.122351,2.069546|H,0,-0.401207,-0.099183,2.152225|H,0,-0.253859,0.071
 526,-2.078348|H,0,-2.703858,0.054968,-2.177055|C,0,-4.372643,-0.046321
 ,-0.117123|N,0,-5.512258,-0.054997,-0.163533|N,0,1.257874,-0.010422,0.
 138276|C,0,1.986488,1.218424,-0.255636|H,0,1.694226,1.546898,-1.252017
 |C,0,1.983358,-1.240742,-0.293222|H,0,1.410327,-1.772225,-1.044743|C,0
 ,2.21658,-2.152096,0.913833|H,0,2.810928,-1.631494,1.654657|H,0,1.2713
 96,-2.427971,1.366937|H,0,2.732584,-3.059233,0.617135|C,0,1.750936,2.3
 45414,0.749196|H,0,0.708139,2.639346,0.766496|H,0,2.030225,2.005272,1.
 738609|H,0,2.344975,3.215125,0.489573|C,0,3.436997,0.714011,-0.289614|
 H,0,4.083364,1.362515,-0.86614|H,0,3.812488,0.649508,0.724366|C,0,3.30
 2215,-0.69522,-0.899793|H,0,4.145115,-1.334013,-0.673154|H,0,3.210349,
 -0.614974,-1.976979||Version=IA32W-G09RevA.02|State=1-A|HF=-611.147757
 2|RMSD=3.658e-009|PG=C01 [X(C13H16N2)]||@


 There ain't no surer way to find out whether you
 like people or hate them than to travel with them.
                                     -- Mark Twain
 Job cpu time:  0 days  0 hours  5 minutes 58.0 seconds.
 File lengths (MBytes):  RWF=     64 Int=      0 D2E=      0 Chk=      5 Scr=      1
 Normal termination of Gaussian 09 at Tue Dec 17 15:47:06 2024.
