 Entering Link 1 = C:\G09W\l1.exe PID=      3856.
  
 Copyright (c) 1988,1990,1992,1993,1995,1998,2003,2009, Gaussian, Inc.
                  All Rights Reserved.
  
 This is part of the Gaussian(R) 09 program.  It is based on
 the Gaussian(R) 03 system (copyright 2003, Gaussian, Inc.),
 the Gaussian(R) 98 system (copyright 1998, Gaussian, Inc.),
 the Gaussian(R) 94 system (copyright 1995, Gaussian, Inc.),
 the Gaussian 92(TM) system (copyright 1992, Gaussian, Inc.),
 the Gaussian 90(TM) system (copyright 1990, Gaussian, Inc.),
 the Gaussian 88(TM) system (copyright 1988, Gaussian, Inc.),
 the Gaussian 86(TM) system (copyright 1986, Carnegie Mellon
 University), and the Gaussian 82(TM) system (copyright 1983,
 Carnegie Mellon University). Gaussian is a federally registered
 trademark of Gaussian, Inc.
  
 This software contains proprietary and confidential information,
 including trade secrets, belonging to Gaussian, Inc.
  
 This software is provided under written license and may be
 used, copied, transmitted, or stored only in accord with that
 written license.
  
 The following legend is applicable only to US Government
 contracts under FAR:
  
                    RESTRICTED RIGHTS LEGEND
  
 Use, reproduction and disclosure by the US Government is
 subject to restrictions as set forth in subparagraphs (a)
 and (c) of the Commercial Computer Software - Restricted
 Rights clause in FAR 52.227-19.
  
 Gaussian, Inc.
 340 Quinnipiac St., Bldg. 40, Wallingford CT 06492
  
  
 ---------------------------------------------------------------
 Warning -- This program may not be used in any manner that
 competes with the business of Gaussian, Inc. or will provide
 assistance to any competitor of Gaussian, Inc.  The licensee
 of this program is prohibited from giving any competitor of
 Gaussian, Inc. access to this program.  By using this program,
 the user acknowledges that Gaussian, Inc. is engaged in the
 business of creating and licensing software in the field of
 computational chemistry and represents and warrants to the
 licensee that it is not a competitor of Gaussian, Inc. and that
 it will not use this program in any manner prohibited above.
 ---------------------------------------------------------------
  

 Cite this work as:
 Gaussian 09, Revision A.02,
 M. J. Frisch, G. W. Trucks, H. B. Schlegel, G. E. Scuseria, 
 M. A. Robb, J. R. Cheeseman, G. Scalmani, V. Barone, B. Mennucci, 
 G. A. Petersson, H. Nakatsuji, M. Caricato, X. Li, H. P. Hratchian, 
 A. F. Izmaylov, J. Bloino, G. Zheng, J. L. Sonnenberg, M. Hada, 
 M. Ehara, K. Toyota, R. Fukuda, J. Hasegawa, M. Ishida, T. Nakajima, 
 Y. Honda, O. Kitao, H. Nakai, T. Vreven, J. A. Montgomery, Jr., 
 J. E. Peralta, F. Ogliaro, M. Bearpark, J. J. Heyd, E. Brothers, 
 K. N. Kudin, V. N. Staroverov, R. Kobayashi, J. Normand, 
 K. Raghavachari, A. Rendell, J. C. Burant, S. S. Iyengar, J. Tomasi, 
 M. Cossi, N. Rega, J. M. Millam, M. Klene, J. E. Knox, J. B. Cross, 
 V. Bakken, C. Adamo, J. Jaramillo, R. Gomperts, R. E. Stratmann, 
 O. Yazyev, A. J. Austin, R. Cammi, C. Pomelli, J. W. Ochterski, 
 R. L. Martin, K. Morokuma, V. G. Zakrzewski, G. A. Voth, 
 P. Salvador, J. J. Dannenberg, S. Dapprich, A. D. Daniels, 
 O. Farkas, J. B. Foresman, J. V. Ortiz, J. Cioslowski, 
 and D. J. Fox, Gaussian, Inc., Wallingford CT, 2009.
 
 ******************************************
 Gaussian 09:  IA32W-G09RevA.02 11-Jun-2009
                25-Dec-2024 
 ******************************************
 %chk=C:\G09W\Hw5\ENERGY190.chk
 ----------------------------------
 # td b3lyp/3-21g geom=connectivity
 ----------------------------------
 1/38=1,57=2/1;
 2/12=2,17=6,18=5,40=1/2;
 3/5=5,11=2,16=1,25=1,30=1,74=-5/1,2,8,3;
 4//1;
 5/5=2,38=5/2;
 8/6=1,10=1/1;
 9/42=1/14;
 6/7=2,8=2,9=2,10=2/1;
 99/5=1,9=1/99;
 -------------------
 Title Card Required
 -------------------
 Symbolic Z-matrix:
 Charge =  0 Multiplicity = 1
 C                    -2.94406  -0.04735  -0.04895 
 C                    -2.20844  -1.20001  -0.28738 
 C                    -0.82964  -1.16367  -0.21698 
 C                    -0.16358   0.01355   0.08863 
 C                    -0.90952   1.16317   0.32567 
 C                    -2.28668   1.1379    0.25943 
 H                    -2.71568  -2.1132   -0.52412 
 H                    -0.24954  -2.0445   -0.39482 
 H                    -0.4073    2.07959   0.56204 
 H                    -2.85588   2.02655   0.44313 
 C                    -4.37037  -0.07779  -0.11943 
 N                    -5.50933  -0.1018   -0.1756 
 N                     1.25899   0.01652   0.14646 
 C                     2.00222   0.89573  -0.78665 
 H                     1.69265   0.72711  -1.8171 
 C                     1.94923  -1.2929    0.33409 
 H                     1.3478   -2.09785  -0.07329 
 C                     2.19326  -1.53842   1.82476 
 H                     2.81552  -0.7487    2.22754 
 H                     1.25396  -1.54228   2.36557 
 H                     2.68381  -2.49327   1.98227 
 C                     1.81342   2.36852  -0.42538 
 H                     0.7774    2.66624  -0.53558 
 H                     2.10963   2.52395   0.60454 
 H                     2.41824   2.99749  -1.0698 
 C                     3.44116   0.39258  -0.59727 
 H                     4.08624   0.6762   -1.41835 
 H                     3.83961   0.8001    0.32386 
 C                     3.2637   -1.1337   -0.47322 
 H                     4.09893  -1.61576   0.01659 
 H                     3.14753  -1.56513  -1.46093 
 
                          Input orientation:                          
 ---------------------------------------------------------------------
 Center     Atomic      Atomic             Coordinates (Angstroms)
 Number     Number       Type             X           Y           Z
 ---------------------------------------------------------------------
      1          6           0       -2.944059   -0.047353   -0.048951
      2          6           0       -2.208439   -1.200014   -0.287377
      3          6           0       -0.829641   -1.163670   -0.216982
      4          6           0       -0.163578    0.013549    0.088626
      5          6           0       -0.909519    1.163168    0.325674
      6          6           0       -2.286675    1.137897    0.259429
      7          1           0       -2.715683   -2.113196   -0.524117
      8          1           0       -0.249536   -2.044499   -0.394815
      9          1           0       -0.407295    2.079594    0.562040
     10          1           0       -2.855878    2.026553    0.443126
     11          6           0       -4.370370   -0.077793   -0.119428
     12          7           0       -5.509325   -0.101795   -0.175604
     13          7           0        1.258986    0.016519    0.146463
     14          6           0        2.002224    0.895726   -0.786650
     15          1           0        1.692650    0.727106   -1.817096
     16          6           0        1.949229   -1.292895    0.334086
     17          1           0        1.347799   -2.097847   -0.073291
     18          6           0        2.193261   -1.538416    1.824760
     19          1           0        2.815524   -0.748700    2.227543
     20          1           0        1.253957   -1.542284    2.365571
     21          1           0        2.683807   -2.493269    1.982267
     22          6           0        1.813423    2.368517   -0.425378
     23          1           0        0.777404    2.666242   -0.535583
     24          1           0        2.109630    2.523945    0.604544
     25          1           0        2.418236    2.997493   -1.069796
     26          6           0        3.441165    0.392583   -0.597274
     27          1           0        4.086244    0.676205   -1.418347
     28          1           0        3.839605    0.800098    0.323859
     29          6           0        3.263697   -1.133697   -0.473217
     30          1           0        4.098925   -1.615765    0.016585
     31          1           0        3.147533   -1.565131   -1.460930
 ---------------------------------------------------------------------
                    Distance matrix (angstroms):
                    1          2          3          4          5
     1  C    0.000000
     2  C    1.388024   0.000000
     3  C    2.396907   1.381072   0.000000
     4  C    2.784549   2.407399   1.386680   0.000000
     5  C    2.396885   2.765439   2.390613   1.390771   0.000000
     6  C    1.389989   2.402279   2.765344   2.408500   1.378980
     7  H    2.132052   1.071095   2.133796   3.378126   3.836526
     8  H    3.371746   2.135884   1.069582   2.115813   3.353179
     9  H    3.366361   3.836855   3.362144   2.133556   1.071417
    10  H    2.133308   3.370986   3.836522   3.380286   2.132497
    11  C    1.428376   2.441625   3.704782   4.212924   3.703456
    12  N    2.568968   3.480578   4.798826   5.353516   4.796835
    13  N    4.208070   3.700163   2.426376   1.423742   2.459539
    14  C    5.089137   4.729808   3.547548   2.497007   3.128424
    15  H    5.022469   4.612193   3.535159   2.754364   3.398956
    16  C    5.063829   4.204884   2.835929   2.496198   3.768920
    17  H    4.756592   3.674067   2.373727   2.601629   3.986086
    18  C    5.667991   4.893935   3.667026   3.313223   4.378705
    19  H    6.232745   5.636374   4.408529   3.745802   4.598727
    20  H    5.068341   4.375325   3.339807   3.100726   4.020110
    21  H    6.463840   5.545977   4.353027   4.240002   5.387562
    22  C    5.348996   5.378553   4.416510   3.117468   3.071052
    23  H    4.631382   4.891299   4.165612   2.883030   2.417996
    24  H    5.707749   5.771405   4.786724   3.425746   3.323363
    25  H    6.250393   6.295821   5.347081   4.112375   4.047967
    26  C    6.423806   5.877961   4.561395   3.688942   4.513766
    27  H    7.198884   6.665007   5.384639   4.557528   5.313792
    28  H    6.846551   6.399445   5.094188   4.086498   4.762983
    29  C    6.316358   5.475692   4.101459   3.657602   4.830067
    30  H    7.215805   6.328356   4.954766   4.563857   5.736072
    31  H    6.434659   5.495178   4.186466   3.982062   5.205310
                    6          7          8          9         10
     6  C    0.000000
     7  H    3.371587   0.000000
     8  H    3.834790   2.470490   0.000000
     9  H    2.123779   4.907941   4.236579   0.000000
    10  H    1.071189   4.253556   4.905979   2.452043   0.000000
    11  C    2.441970   2.654172   4.574390   4.563407   2.653003
    12  N    3.480167   3.460004   5.611375   5.597614   3.457379
    13  N    3.720479   4.558877   2.610827   2.684302   4.589156
    14  C    4.421265   5.601891   3.724095   3.004379   5.137341
    15  H    4.507298   5.401158   3.671071   3.449534   5.242736
    16  C    4.884384   4.813607   2.435318   4.120540   5.841206
    17  H    4.877515   4.088443   1.630247   4.575480   5.911706
    18  C    5.448187   5.472232   3.339145   4.631128   6.333381
    19  H    5.784907   6.326747   4.236797   4.599968   6.561324
    20  H    4.914802   4.943105   3.183150   4.373841   5.772620
    21  H    6.392122   5.964974   3.802159   5.699389   7.313402
    22  C    4.335227   6.372464   4.871493   2.447460   4.761681
    23  H    3.515176   5.919866   4.823433   1.718268   3.816780
    24  H    4.622524   6.786796   5.237849   2.556201   4.992967
    25  H    5.230786   7.264574   5.744066   3.389550   5.572067
    26  C    5.839313   6.647635   4.427373   4.358974   6.588250
    27  H    6.606223   7.405850   5.220042   5.107184   7.313110
    28  H    6.135924   7.223444   5.032822   4.441847   6.807930
    29  C    6.041816   6.059289   3.630222   4.987302   6.948097
    30  H    6.958270   6.854100   4.388870   5.853138   7.862424
    31  H    6.308456   5.962827   3.592558   5.478434   7.250281
                   11         12         13         14         15
    11  C    0.000000
    12  N    1.140592   0.000000
    13  N    5.636421   6.777002   0.000000
    14  C    6.480963   7.602092   1.481927   0.000000
    15  H    6.347453   7.433036   2.132736   1.089077   0.000000
    16  C    6.451317   7.570240   1.492047   2.459455   2.962064
    17  H    6.064669   7.142468   2.127610   3.146210   3.337685
    18  C    6.999610   8.086728   2.471310   3.575053   4.318138
    19  H    7.589167   8.688884   2.709108   3.528591   4.449489
    20  H    6.320840   7.367127   2.711888   4.054663   4.778838
    21  H    7.746810   8.803577   3.420428   4.429079   5.078224
    22  C    6.657127   7.732236   2.483203   1.528161   2.155388
    23  H    5.848290   6.878559   2.778154   2.167475   2.498040
    24  H    7.020226   8.096395   2.687121   2.144308   3.044150
    25  H    7.513039   8.558702   3.421893   2.161172   2.497918
    26  C    7.840259   8.974045   2.335909   1.536088   2.158049
    27  H    8.588947   9.706937   3.298060   2.188691   2.427114
    28  H    8.268669   9.405603   2.702788   2.149033   3.032892
    29  C    7.714861   8.838512   2.392878   2.410002   2.781508
    30  H    8.608880   9.728695   3.278181   3.368817   3.826433
    31  H    7.780146   8.873253   2.941419   2.796821   2.738227
                   16         17         18         19         20
    16  C    0.000000
    17  H    1.084261   0.000000
    18  C    1.530340   2.151828   0.000000
    19  H    2.152160   3.044380   1.083096   0.000000
    20  H    2.161603   2.503099   1.083874   1.757077   0.000000
    21  H    2.167257   2.483262   1.084983   1.766644   1.759479
    22  C    3.741813   4.504351   4.524547   4.214171   4.837020
    23  H    4.219510   4.820333   5.025437   4.842584   5.133760
    24  H    3.829771   4.732949   4.242487   3.720566   4.513049
    25  H    4.538533   5.301071   5.385493   5.006420   5.810927
    26  C    2.436009   3.295297   3.339502   3.110232   4.160053
    27  H    3.393406   4.123545   4.359550   4.115531   5.221262
    28  H    2.820327   3.842514   3.229830   2.659235   4.042390
    29  C    1.550776   2.181786   2.567164   2.764632   3.502102
    30  H    2.196871   2.794490   2.628124   2.699492   3.690119
    31  H    2.175346   2.334175   3.421566   3.792312   4.269458
                   21         22         23         24         25
    21  H    0.000000
    22  C    5.494659   0.000000
    23  H    6.049338   1.083568   0.000000
    24  H    5.234523   1.082883   1.759251   0.000000
    25  H    6.287613   1.084750   1.757111   1.767173   0.000000
    26  C    3.944079   2.565815   3.502706   2.785687   2.838171
    27  H    4.855571   3.002602   3.960800   3.378348   2.879604
    28  H    3.864253   2.669590   3.687575   2.458302   2.964981
    29  C    2.866027   3.790921   4.541484   3.983941   4.258808
    30  H    2.576136   4.614472   5.447290   4.630355   5.028627
    31  H    3.596122   4.280865   4.937439   4.697231   4.637069
                   26         27         28         29         30
    26  C    0.000000
    27  H    1.082003   0.000000
    28  H    1.083193   1.763933   0.000000
    29  C    1.541563   2.201272   2.169462   0.000000
    30  H    2.200667   2.704129   2.449093   1.081620   0.000000
    31  H    2.159808   2.430345   3.042819   1.084070   1.758056
                   31
    31  H    0.000000
 Stoichiometry    C13H16N2
 Framework group  C1[X(C13H16N2)]
 Deg. of freedom    87
 Full point group                 C1      NOp   1
 Largest Abelian subgroup         C1      NOp   1
 Largest concise Abelian subgroup C1      NOp   1
                         Standard orientation:                         
 ---------------------------------------------------------------------
 Center     Atomic      Atomic             Coordinates (Angstroms)
 Number     Number       Type             X           Y           Z
 ---------------------------------------------------------------------
      1          6           0       -2.943617   -0.055272   -0.047376
      2          6           0       -2.191033   -1.101858   -0.562047
      3          6           0       -0.812573   -1.060010   -0.488186
      4          6           0       -0.163645    0.018177    0.094297
      5          6           0       -0.926507    1.061972    0.606913
      6          6           0       -2.303478    1.029874    0.539778
      7          1           0       -2.684985   -1.938136   -1.013594
      8          1           0       -0.219479   -1.860537   -0.877292
      9          1           0       -0.437630    1.901400    1.058902
     10          1           0       -2.885760    1.836744    0.936458
     11          6           0       -4.369679   -0.092196   -0.119761
     12          7           0       -5.508440   -0.121409   -0.177389
     13          7           0        1.259033    0.031491    0.147720
     14          6           0        1.981855    1.124745   -0.543968
     15          1           0        1.668327    1.207693   -1.583635
     16          6           0        1.971561   -1.271957    0.007971
     17          1           0        1.380575   -1.963236   -0.582361
     18          6           0        2.229256   -1.870013    1.392840
     19          1           0        2.841288   -1.192024    1.974943
     20          1           0        1.293688   -2.022126    1.918537
     21          1           0        2.736190   -2.825791    1.311022
     22          6           0        1.771635    2.461136    0.166767
     23          1           0        0.730241    2.758827    0.135139
     24          1           0        2.072007    2.365294    1.202733
     25          1           0        2.361982    3.238852   -0.305813
     26          6           0        3.429946    0.615507   -0.486735
     27          1           0        4.064982    1.102249   -1.215117
     28          1           0        3.827752    0.792420    0.505112
     29          6           0        3.277985   -0.897653   -0.739064
     30          1           0        4.124077   -1.470289   -0.383930
     31          1           0        3.162366   -1.076614   -1.801990
 ---------------------------------------------------------------------
 Rotational constants (GHZ):      1.4217388      0.3238624      0.2861738
 Standard basis: 3-21G (6D, 7F)
 There are   167 symmetry adapted basis functions of A   symmetry.
 Integral buffers will be    262144 words long.
 Raffenetti 2 integral format.
 Two-electron integral symmetry is turned on.
   167 basis functions,   273 primitive gaussians,   167 cartesian basis functions
    54 alpha electrons       54 beta electrons
       nuclear repulsion energy       952.3466899956 Hartrees.
 NAtoms=   31 NActive=   31 NUniq=   31 SFac= 7.50D-01 NAtFMM=   80 NAOKFM=F Big=F
 One-electron integrals computed using PRISM.
 NBasis=   167 RedAO= T  NBF=   167
 NBsUse=   167 1.00D-06 NBFU=   167
 Harris functional with IExCor=  402 diagonalized for initial guess.
 ExpMin= 1.83D-01 ExpMax= 2.43D+02 ExpMxC= 2.43D+02 IAcc=1 IRadAn=         1 AccDes= 0.00D+00
 HarFok:  IExCor=  402 AccDes= 0.00D+00 IRadAn=         1 IDoV= 1
 ScaDFX=  1.000000  1.000000  1.000000  1.000000
 FoFCou: FMM=F IPFlag=           0 FMFlag=      100000 FMFlg1=           0
         NFxFlg=           0 DoJE=T BraDBF=F KetDBF=T FulRan=T
         Omega=  0.000000  0.000000  1.000000  0.000000  0.000000 ICntrl=     500 IOpCl=  0
         NMat0=    1 NMatS0=    1 NMatT0=    0 NMatD0=    1 NMtDS0=    0 NMtDT0=    0
         I1Cent=           4 NGrid=           0.
 Petite list used in FoFCou.
 Initial guess orbital symmetries:
       Occupied  (A) (A) (A) (A) (A) (A) (A) (A) (A) (A) (A) (A)
                 (A) (A) (A) (A) (A) (A) (A) (A) (A) (A) (A) (A)
                 (A) (A) (A) (A) (A) (A) (A) (A) (A) (A) (A) (A)
                 (A) (A) (A) (A) (A) (A) (A) (A) (A) (A) (A) (A)
                 (A) (A) (A) (A) (A) (A)
       Virtual   (A) (A) (A) (A) (A) (A) (A) (A) (A) (A) (A) (A)
                 (A) (A) (A) (A) (A) (A) (A) (A) (A) (A) (A) (A)
                 (A) (A) (A) (A) (A) (A) (A) (A) (A) (A) (A) (A)
                 (A) (A) (A) (A) (A) (A) (A) (A) (A) (A) (A) (A)
                 (A) (A) (A) (A) (A) (A) (A) (A) (A) (A) (A) (A)
                 (A) (A) (A) (A) (A) (A) (A) (A) (A) (A) (A) (A)
                 (A) (A) (A) (A) (A) (A) (A) (A) (A) (A) (A) (A)
                 (A) (A) (A) (A) (A) (A) (A) (A) (A) (A) (A) (A)
                 (A) (A) (A) (A) (A) (A) (A) (A) (A) (A) (A) (A)
                 (A) (A) (A) (A) (A)
 The electronic state of the initial guess is 1-A.
 Requested convergence on RMS density matrix=1.00D-08 within 128 cycles.
 Requested convergence on MAX density matrix=1.00D-06.
 Requested convergence on             energy=1.00D-06.
 No special actions if energy rises.
 Integral accuracy reduced to 1.0D-05 until final iterations.
 Initial convergence to 1.0D-05 achieved.  Increase integral accuracy.
 SCF Done:  E(RB3LYP) =  -611.141569065     A.U. after   15 cycles
             Convg  =    0.8606D-08             -V/T =  2.0073
 ExpMin= 1.83D-01 ExpMax= 2.43D+02 ExpMxC= 2.43D+02 IAcc=1 IRadAn=         1 AccDes= 0.00D+00
 HarFok:  IExCor=  205 AccDes= 0.00D+00 IRadAn=         1 IDoV=-2
 ScaDFX=  1.000000  1.000000  1.000000  1.000000
 Range of M.O.s used for correlation:    16   167
 NBasis=   167 NAE=    54 NBE=    54 NFC=    15 NFV=     0
 NROrb=    152 NOA=    39 NOB=    39 NVA=   113 NVB=   113
 Would need an additional   268100000 words for in-memory AO integral storage.
 Orbital symmetries:
       Occupied  (A) (A) (A) (A) (A) (A) (A) (A) (A) (A) (A) (A)
                 (A) (A) (A) (A) (A) (A) (A) (A) (A) (A) (A) (A)
                 (A) (A) (A) (A) (A) (A) (A) (A) (A) (A) (A) (A)
                 (A) (A) (A) (A) (A) (A) (A) (A) (A) (A) (A) (A)
                 (A) (A) (A) (A) (A) (A)
       Virtual   (A) (A) (A) (A) (A) (A) (A) (A) (A) (A) (A) (A)
                 (A) (A) (A) (A) (A) (A) (A) (A) (A) (A) (A) (A)
                 (A) (A) (A) (A) (A) (A) (A) (A) (A) (A) (A) (A)
                 (A) (A) (A) (A) (A) (A) (A) (A) (A) (A) (A) (A)
                 (A) (A) (A) (A) (A) (A) (A) (A) (A) (A) (A) (A)
                 (A) (A) (A) (A) (A) (A) (A) (A) (A) (A) (A) (A)
                 (A) (A) (A) (A) (A) (A) (A) (A) (A) (A) (A) (A)
                 (A) (A) (A) (A) (A) (A) (A) (A) (A) (A) (A) (A)
                 (A) (A) (A) (A) (A) (A) (A) (A) (A) (A) (A) (A)
                 (A) (A) (A) (A) (A)
    12 initial guesses have been made.
 Convergence on wavefunction:    0.001000000000000
 Iteration     1 Dimension    12 NMult    12
 CISAX will form    12 AO SS matrices at one time.
 New state      1 was old state      2
 New state      2 was old state      1
 Iteration     2 Dimension    18 NMult    18
 New state      1 was old state      2
 New state      2 was old state      1
 Iteration     3 Dimension    24 NMult    24
 Iteration     4 Dimension    30 NMult    30
 Iteration     5 Dimension    34 NMult    34
 ***********************************************************************
 Excited states from <AA,BB:AA,BB> singles matrix:
 ***********************************************************************
 
 Ground to excited state transition electric dipole moments (Au):
       state          X           Y           Z        Dip. S.      Osc.
         1         1.6982     -0.0248     -0.0049      2.8846      0.3130
         2        -0.2964     -0.2618     -0.1680      0.1846      0.0203
         3         0.0591      0.3078      0.1682      0.1266      0.0181
 Ground to excited state transition velocity dipole moments (Au):
       state          X           Y           Z        Dip. S.      Osc.
         1        -0.2266      0.0017      0.0089      0.0514      0.2106
         2         0.0387      0.0379      0.0268      0.0037      0.0148
         3        -0.0097     -0.0542     -0.0304      0.0040      0.0123
 Ground to excited state transition magnetic dipole moments (Au):
       state          X           Y           Z
         1        -0.1629     -0.0217     -0.0768
         2         0.0659      0.2627     -0.6929
         3        -0.0325     -0.1338      0.3709
 <0|del|b> * <b|rxdel|0> + <0|del|b> * <b|delr+rdel|0>
 Rotatory Strengths (R) in cgs (10**-40 erg-esu-cm/Gauss)
       state          XX          YY          ZZ    R(velocity)
         1        -1.5929     36.4537    122.3670     52.4093
 Total R(velocity) tensor for State=          1
                 1             2             3 
      1  -0.159289D+01 -0.516291D+02 -0.308289D+02
      2  -0.397675D+01  0.364537D+02 -0.107499D+03
      3   0.513563D+01  0.420546D+02  0.122367D+03
 R(velocity) tensor in inp. orien. for State=          1
                 1             2             3 
      1  -0.247715D+01 -0.575671D+02 -0.194989D+02
      2  -0.159631D+01  0.270408D+02 -0.829465D+02
      3   0.614043D+01  0.658499D+02  0.132664D+03
         2       -20.3329    -30.4144     24.7272     -8.6734
 Total R(velocity) tensor for State=          2
                 1             2             3 
      1  -0.203329D+02 -0.181156D+02  0.549352D+02
      2  -0.704604D+00 -0.304144D+02  0.440151D+02
      3  -0.701990D+01 -0.103292D+02  0.247272D+02
 R(velocity) tensor in inp. orien. for State=          2
                 1             2             3 
      1  -0.207760D+02 -0.412159D+01  0.583562D+02
      2  -0.273152D+01 -0.190296D+02  0.541160D+02
      3  -0.684550D+01  0.808407D+00  0.137855D+02
         3        -7.8385     -8.1246      3.7232     -4.0800
 Total R(velocity) tensor for State=          3
                 1             2             3 
      1  -0.783852D+01 -0.227502D+01  0.656428D+01
      2  -0.172448D+01 -0.812462D+01  0.150296D+02
      3  -0.295406D+01 -0.155850D+01  0.372319D+01
 R(velocity) tensor in inp. orien. for State=          3
                 1             2             3 
      1  -0.791674D+01 -0.545334D+00  0.714515D+01
      2  -0.244548D+01 -0.417614D+01  0.169032D+02
      3  -0.248592D+01  0.480716D+00 -0.147075D+00
 1/2[<0|r|b>*<b|rxdel|0> + (<0|rxdel|b>*<b|r|0>)*]
 Rotatory Strengths (R) in cgs (10**-40 erg-esu-cm/Gauss)
       state          XX          YY          ZZ     R(length)     R(au)
         1       195.6436     -0.3795     -0.2659     64.9994      0.1379
         2        13.8083     48.6470    -82.3264     -6.6237     -0.0140
         3         1.3596     29.1378    -44.1258     -4.5428     -0.0096
  1/2[<0|del|b>*<b|r|0> + (<0|r|b>*<b|del|0>)*] (Au)
       state          X           Y           Z        Dip. S.   Osc.(frdel)
         1        -0.3848      0.0000      0.0000      0.3849      0.2566
         2        -0.0115     -0.0099     -0.0045      0.0259      0.0173
         3        -0.0006     -0.0167     -0.0051      0.0224      0.0149
 Ground to excited state transition densities written to RWF  633

 Excitation energies and oscillator strengths:
 
 Excited State   1:      Singlet-A      4.4291 eV  279.93 nm  f=0.3130  <S**2>=0.000
      54 -> 55         0.68812
 This state for optimization and/or second-order correction.
 Copying the excited state density for this state as the 1-particle RhoCI density.
 
 Excited State   2:      Singlet-A      4.4901 eV  276.13 nm  f=0.0203  <S**2>=0.000
      53 -> 55         0.15911
      54 -> 56         0.68112
 
 Excited State   3:      Singlet-A      5.8277 eV  212.75 nm  f=0.0181  <S**2>=0.000
      52 -> 56        -0.43186
      53 -> 55         0.54677
      54 -> 56        -0.10842
 SavETr:  write IOETrn=   770 NScale= 10 NData=  16 NLR=1 LETran=      62.

 **********************************************************************

            Population analysis using the SCF density.

 **********************************************************************

 Orbital symmetries:
       Occupied  (A) (A) (A) (A) (A) (A) (A) (A) (A) (A) (A) (A)
                 (A) (A) (A) (A) (A) (A) (A) (A) (A) (A) (A) (A)
                 (A) (A) (A) (A) (A) (A) (A) (A) (A) (A) (A) (A)
                 (A) (A) (A) (A) (A) (A) (A) (A) (A) (A) (A) (A)
                 (A) (A) (A) (A) (A) (A)
       Virtual   (A) (A) (A) (A) (A) (A) (A) (A) (A) (A) (A) (A)
                 (A) (A) (A) (A) (A) (A) (A) (A) (A) (A) (A) (A)
                 (A) (A) (A) (A) (A) (A) (A) (A) (A) (A) (A) (A)
                 (A) (A) (A) (A) (A) (A) (A) (A) (A) (A) (A) (A)
                 (A) (A) (A) (A) (A) (A) (A) (A) (A) (A) (A) (A)
                 (A) (A) (A) (A) (A) (A) (A) (A) (A) (A) (A) (A)
                 (A) (A) (A) (A) (A) (A) (A) (A) (A) (A) (A) (A)
                 (A) (A) (A) (A) (A) (A) (A) (A) (A) (A) (A) (A)
                 (A) (A) (A) (A) (A) (A) (A) (A) (A) (A) (A) (A)
                 (A) (A) (A) (A) (A)
 The electronic state is 1-A.
 Alpha  occ. eigenvalues --  -14.26393 -14.23809 -10.17782 -10.16555 -10.16362
 Alpha  occ. eigenvalues --  -10.16236 -10.14920 -10.14535 -10.14483 -10.13354
 Alpha  occ. eigenvalues --  -10.13334 -10.12832 -10.12699 -10.11465 -10.11011
 Alpha  occ. eigenvalues --   -0.95917  -0.92639  -0.88171  -0.81352  -0.79329
 Alpha  occ. eigenvalues --   -0.76904  -0.75574  -0.72194  -0.65799  -0.64991
 Alpha  occ. eigenvalues --   -0.64072  -0.59049  -0.57699  -0.57034  -0.53387
 Alpha  occ. eigenvalues --   -0.49913  -0.47975  -0.47641  -0.46068  -0.45030
 Alpha  occ. eigenvalues --   -0.44174  -0.42992  -0.41972  -0.40598  -0.40387
 Alpha  occ. eigenvalues --   -0.39353  -0.38473  -0.37829  -0.37738  -0.35966
 Alpha  occ. eigenvalues --   -0.34631  -0.34035  -0.33826  -0.33675  -0.33271
 Alpha  occ. eigenvalues --   -0.32771  -0.27616  -0.27100  -0.20499
 Alpha virt. eigenvalues --   -0.02717  -0.01038   0.06168   0.09220   0.10168
 Alpha virt. eigenvalues --    0.10463   0.11964   0.12918   0.13737   0.15147
 Alpha virt. eigenvalues --    0.15854   0.16228   0.18028   0.18399   0.18603
 Alpha virt. eigenvalues --    0.18876   0.19145   0.20163   0.20908   0.21448
 Alpha virt. eigenvalues --    0.22552   0.23176   0.23946   0.25372   0.25849
 Alpha virt. eigenvalues --    0.26593   0.28892   0.29994   0.30981   0.31853
 Alpha virt. eigenvalues --    0.34765   0.37205   0.38954   0.40891   0.51427
 Alpha virt. eigenvalues --    0.55121   0.60298   0.63990   0.66222   0.66817
 Alpha virt. eigenvalues --    0.67091   0.68847   0.70234   0.70387   0.70900
 Alpha virt. eigenvalues --    0.72453   0.73128   0.74949   0.75240   0.75711
 Alpha virt. eigenvalues --    0.76128   0.77072   0.78027   0.78670   0.79314
 Alpha virt. eigenvalues --    0.80220   0.80912   0.83162   0.86040   0.87153
 Alpha virt. eigenvalues --    0.89005   0.90241   0.93944   0.94345   0.94725
 Alpha virt. eigenvalues --    0.96359   0.96489   0.99757   1.00346   1.01099
 Alpha virt. eigenvalues --    1.01915   1.05134   1.05508   1.07421   1.08018
 Alpha virt. eigenvalues --    1.09271   1.09729   1.11596   1.12437   1.13615
 Alpha virt. eigenvalues --    1.15448   1.15742   1.18004   1.19544   1.19752
 Alpha virt. eigenvalues --    1.21525   1.23034   1.26227   1.29212   1.32800
 Alpha virt. eigenvalues --    1.34566   1.36878   1.39798   1.42545   1.50220
 Alpha virt. eigenvalues --    1.51227   1.53284   1.54600   1.57602   1.63393
 Alpha virt. eigenvalues --    1.73120   1.76716   1.79048   1.83907   1.92362
 Alpha virt. eigenvalues --    1.97193   1.99516   2.21752   2.33826   2.44885
 Alpha virt. eigenvalues --    2.51024   3.00285   3.01621
          Condensed to atoms (all electrons):
              1          2          3          4          5          6
     1  C    5.438479   0.451617  -0.086602  -0.030584  -0.086675   0.444814
     2  C    0.451617   5.140798   0.421930  -0.056880  -0.028200  -0.056852
     3  C   -0.086602   0.421930   5.299325   0.387206  -0.081701  -0.029349
     4  C   -0.030584  -0.056880   0.387206   4.979261   0.421339  -0.063833
     5  C   -0.086675  -0.028200  -0.081701   0.421339   5.218792   0.444547
     6  C    0.444814  -0.056852  -0.029349  -0.063833   0.444547   5.136645
     7  H   -0.042822   0.396182  -0.034351   0.003803  -0.000182   0.003790
     8  H    0.004249  -0.036373   0.385435  -0.055598   0.004043  -0.000127
     9  H    0.004598  -0.000291   0.004803  -0.048407   0.387066  -0.038628
    10  H   -0.043268   0.003815  -0.000201   0.004145  -0.034427   0.396943
    11  C    0.069392  -0.077042   0.004687  -0.000125   0.004387  -0.077195
    12  N   -0.118346  -0.000713  -0.000006   0.000000  -0.000006  -0.000729
    13  N   -0.000348   0.005055  -0.060270   0.298725  -0.060229   0.003851
    14  C    0.000012  -0.000074  -0.000035  -0.064120  -0.000962   0.000089
    15  H   -0.000010  -0.000064   0.002202  -0.001864   0.000646   0.000039
    16  C   -0.000016   0.001004  -0.015341  -0.066446   0.002252  -0.000123
    17  H    0.000001  -0.000503  -0.005334  -0.004581  -0.000102   0.000006
    18  C    0.000001  -0.000024   0.000321   0.000045   0.000035   0.000005
    19  H    0.000000   0.000000  -0.000036   0.000093  -0.000009   0.000000
    20  H   -0.000001  -0.000022   0.001008   0.002431  -0.000021  -0.000004
    21  H    0.000000  -0.000001  -0.000062  -0.000038  -0.000003   0.000000
    22  C   -0.000010   0.000010  -0.000268  -0.003360  -0.012887   0.000093
    23  H   -0.000014  -0.000005  -0.000050   0.001062  -0.000948   0.000330
    24  H    0.000000  -0.000001   0.000019   0.000319  -0.000518   0.000012
    25  H    0.000000   0.000000   0.000007   0.000076   0.000293  -0.000002
    26  C    0.000000   0.000001  -0.000136   0.005069  -0.000056   0.000001
    27  H    0.000000   0.000000   0.000003  -0.000076   0.000000   0.000000
    28  H    0.000000   0.000000   0.000000  -0.000131   0.000000   0.000000
    29  C    0.000000  -0.000008   0.000100   0.004710  -0.000074   0.000001
    30  H    0.000000   0.000000   0.000000  -0.000065   0.000001   0.000000
    31  H    0.000000  -0.000001   0.000068  -0.000163   0.000002   0.000000
              7          8          9         10         11         12
     1  C   -0.042822   0.004249   0.004598  -0.043268   0.069392  -0.118346
     2  C    0.396182  -0.036373  -0.000291   0.003815  -0.077042  -0.000713
     3  C   -0.034351   0.385435   0.004803  -0.000201   0.004687  -0.000006
     4  C    0.003803  -0.055598  -0.048407   0.004145  -0.000125   0.000000
     5  C   -0.000182   0.004043   0.387066  -0.034427   0.004387  -0.000006
     6  C    0.003790  -0.000127  -0.038628   0.396943  -0.077195  -0.000729
     7  H    0.480483  -0.003615   0.000002  -0.000052  -0.006231  -0.000095
     8  H   -0.003615   0.490929  -0.000042   0.000002  -0.000081   0.000000
     9  H    0.000002  -0.000042   0.489439  -0.004289  -0.000079   0.000000
    10  H   -0.000052   0.000002  -0.004289   0.479874  -0.006229  -0.000099
    11  C   -0.006231  -0.000081  -0.000079  -0.006229   4.957022   0.848633
    12  N   -0.000095   0.000000   0.000000  -0.000099   0.848633   6.751658
    13  N   -0.000020  -0.009936  -0.004347  -0.000016   0.000000   0.000000
    14  C    0.000000   0.000029  -0.001035   0.000000   0.000000   0.000000
    15  H    0.000000   0.000139   0.000245   0.000000   0.000000   0.000000
    16  C    0.000002   0.000410  -0.000049   0.000001   0.000000   0.000000
    17  H    0.000015   0.018223   0.000006   0.000000   0.000000   0.000000
    18  C    0.000000  -0.000552  -0.000010   0.000000   0.000000   0.000000
    19  H    0.000000   0.000007   0.000004   0.000000   0.000000   0.000000
    20  H    0.000000   0.000075   0.000001   0.000000   0.000000   0.000000
    21  H    0.000000   0.000060   0.000000   0.000000   0.000000   0.000000
    22  C    0.000000  -0.000008  -0.002247   0.000008   0.000000   0.000000
    23  H    0.000000  -0.000001   0.004570   0.000010   0.000000   0.000000
    24  H    0.000000   0.000001   0.001798  -0.000001   0.000000   0.000000
    25  H    0.000000   0.000000   0.000282   0.000000   0.000000   0.000000
    26  C    0.000000  -0.000004  -0.000025   0.000000   0.000000   0.000000
    27  H    0.000000   0.000001   0.000001   0.000000   0.000000   0.000000
    28  H    0.000000   0.000000   0.000002   0.000000   0.000000   0.000000
    29  C    0.000000  -0.000147  -0.000006   0.000000   0.000000   0.000000
    30  H    0.000000   0.000002   0.000000   0.000000   0.000000   0.000000
    31  H    0.000000  -0.000030   0.000000   0.000000   0.000000   0.000000
             13         14         15         16         17         18
     1  C   -0.000348   0.000012  -0.000010  -0.000016   0.000001   0.000001
     2  C    0.005055  -0.000074  -0.000064   0.001004  -0.000503  -0.000024
     3  C   -0.060270  -0.000035   0.002202  -0.015341  -0.005334   0.000321
     4  C    0.298725  -0.064120  -0.001864  -0.066446  -0.004581   0.000045
     5  C   -0.060229  -0.000962   0.000646   0.002252  -0.000102   0.000035
     6  C    0.003851   0.000089   0.000039  -0.000123   0.000006   0.000005
     7  H   -0.000020   0.000000   0.000000   0.000002   0.000015   0.000000
     8  H   -0.009936   0.000029   0.000139   0.000410   0.018223  -0.000552
     9  H   -0.004347  -0.001035   0.000245  -0.000049   0.000006  -0.000010
    10  H   -0.000016   0.000000   0.000000   0.000001   0.000000   0.000000
    11  C    0.000000   0.000000   0.000000   0.000000   0.000000   0.000000
    12  N    0.000000   0.000000   0.000000   0.000000   0.000000   0.000000
    13  N    7.263649   0.267133  -0.047009   0.261926  -0.042905  -0.063947
    14  C    0.267133   5.300720   0.357837  -0.081628   0.001648   0.004315
    15  H   -0.047009   0.357837   0.597288   0.000902   0.000964  -0.000224
    16  C    0.261926  -0.081628   0.000902   5.325014   0.356449   0.274187
    17  H   -0.042905   0.001648   0.000964   0.356449   0.563875  -0.061535
    18  C   -0.063947   0.004315  -0.000224   0.274187  -0.061535   5.368602
    19  H    0.001878   0.000220   0.000022  -0.043113   0.004029   0.365900
    20  H   -0.001544  -0.000010  -0.000001  -0.037300  -0.002014   0.367040
    21  H    0.003089  -0.000113   0.000009  -0.038065   0.001936   0.340233
    22  C   -0.059624   0.278462  -0.061395   0.004757  -0.000150  -0.000093
    23  H   -0.002178  -0.039386  -0.002628  -0.000036  -0.000002   0.000003
    24  H    0.004049  -0.041619   0.004683  -0.000010   0.000009  -0.000039
    25  H    0.002754  -0.036910   0.002172  -0.000094   0.000003  -0.000001
    26  C   -0.071562   0.267673  -0.049026  -0.091199   0.004650   0.001110
    27  H    0.002628  -0.036304  -0.001004   0.003973  -0.000039  -0.000102
    28  H    0.001646  -0.046411   0.004285   0.000605   0.000036   0.000837
    29  C   -0.050171  -0.088937  -0.001962   0.271070  -0.036316  -0.074063
    30  H    0.002287   0.004266  -0.000124  -0.038889   0.001166  -0.002092
    31  H    0.001272   0.000694   0.002096  -0.039168  -0.003858   0.003502
             19         20         21         22         23         24
     1  C    0.000000  -0.000001   0.000000  -0.000010  -0.000014   0.000000
     2  C    0.000000  -0.000022  -0.000001   0.000010  -0.000005  -0.000001
     3  C   -0.000036   0.001008  -0.000062  -0.000268  -0.000050   0.000019
     4  C    0.000093   0.002431  -0.000038  -0.003360   0.001062   0.000319
     5  C   -0.000009  -0.000021  -0.000003  -0.012887  -0.000948  -0.000518
     6  C    0.000000  -0.000004   0.000000   0.000093   0.000330   0.000012
     7  H    0.000000   0.000000   0.000000   0.000000   0.000000   0.000000
     8  H    0.000007   0.000075   0.000060  -0.000008  -0.000001   0.000001
     9  H    0.000004   0.000001   0.000000  -0.002247   0.004570   0.001798
    10  H    0.000000   0.000000   0.000000   0.000008   0.000010  -0.000001
    11  C    0.000000   0.000000   0.000000   0.000000   0.000000   0.000000
    12  N    0.000000   0.000000   0.000000   0.000000   0.000000   0.000000
    13  N    0.001878  -0.001544   0.003089  -0.059624  -0.002178   0.004049
    14  C    0.000220  -0.000010  -0.000113   0.278462  -0.039386  -0.041619
    15  H    0.000022  -0.000001   0.000009  -0.061395  -0.002628   0.004683
    16  C   -0.043113  -0.037300  -0.038065   0.004757  -0.000036  -0.000010
    17  H    0.004029  -0.002014   0.001936  -0.000150  -0.000002   0.000009
    18  C    0.365900   0.367040   0.340233  -0.000093   0.000003  -0.000039
    19  H    0.523843  -0.026214  -0.024764  -0.000093  -0.000001   0.000095
    20  H   -0.026214   0.516914  -0.026922   0.000000   0.000000   0.000002
    21  H   -0.024764  -0.026922   0.563263  -0.000001   0.000000   0.000002
    22  C   -0.000093   0.000000  -0.000001   5.400776   0.360805   0.354936
    23  H   -0.000001   0.000000   0.000000   0.360805   0.529927  -0.030602
    24  H    0.000095   0.000002   0.000002   0.354936  -0.030602   0.528451
    25  H    0.000002   0.000000   0.000000   0.344780  -0.025877  -0.021969
    26  C    0.001649  -0.000178   0.000205  -0.055388   0.003927  -0.004845
    27  H   -0.000015   0.000001   0.000002   0.000111  -0.000077   0.000032
    28  H    0.001795  -0.000041   0.000060  -0.004611   0.000040   0.005381
    29  C   -0.003418   0.003839  -0.000770   0.004953  -0.000142  -0.000049
    30  H    0.000531   0.000093   0.001489  -0.000070   0.000001  -0.000003
    31  H    0.000030  -0.000087   0.000009  -0.000056   0.000003   0.000003
             25         26         27         28         29         30
     1  C    0.000000   0.000000   0.000000   0.000000   0.000000   0.000000
     2  C    0.000000   0.000001   0.000000   0.000000  -0.000008   0.000000
     3  C    0.000007  -0.000136   0.000003   0.000000   0.000100   0.000000
     4  C    0.000076   0.005069  -0.000076  -0.000131   0.004710  -0.000065
     5  C    0.000293  -0.000056   0.000000   0.000000  -0.000074   0.000001
     6  C   -0.000002   0.000001   0.000000   0.000000   0.000001   0.000000
     7  H    0.000000   0.000000   0.000000   0.000000   0.000000   0.000000
     8  H    0.000000  -0.000004   0.000001   0.000000  -0.000147   0.000002
     9  H    0.000282  -0.000025   0.000001   0.000002  -0.000006   0.000000
    10  H    0.000000   0.000000   0.000000   0.000000   0.000000   0.000000
    11  C    0.000000   0.000000   0.000000   0.000000   0.000000   0.000000
    12  N    0.000000   0.000000   0.000000   0.000000   0.000000   0.000000
    13  N    0.002754  -0.071562   0.002628   0.001646  -0.050171   0.002287
    14  C   -0.036910   0.267673  -0.036304  -0.046411  -0.088937   0.004266
    15  H    0.002172  -0.049026  -0.001004   0.004285  -0.001962  -0.000124
    16  C   -0.000094  -0.091199   0.003973   0.000605   0.271070  -0.038889
    17  H    0.000003   0.004650  -0.000039   0.000036  -0.036316   0.001166
    18  C   -0.000001   0.001110  -0.000102   0.000837  -0.074063  -0.002092
    19  H    0.000002   0.001649  -0.000015   0.001795  -0.003418   0.000531
    20  H    0.000000  -0.000178   0.000001  -0.000041   0.003839   0.000093
    21  H    0.000000   0.000205   0.000002   0.000060  -0.000770   0.001489
    22  C    0.344780  -0.055388   0.000111  -0.004611   0.004953  -0.000070
    23  H   -0.025877   0.003927  -0.000077   0.000040  -0.000142   0.000001
    24  H   -0.021969  -0.004845   0.000032   0.005381  -0.000049  -0.000003
    25  H    0.545641  -0.003372   0.001622   0.000191  -0.000027  -0.000001
    26  C   -0.003372   5.428370   0.373763   0.369419   0.265608  -0.032264
    27  H    0.001622   0.373763   0.521734  -0.025909  -0.032917   0.000276
    28  H    0.000191   0.369419  -0.025909   0.530014  -0.043754  -0.004021
    29  C   -0.000027   0.265608  -0.032917  -0.043754   5.426498   0.380657
    30  H   -0.000001  -0.032264   0.000276  -0.004021   0.380657   0.512980
    31  H   -0.000001  -0.043422  -0.004042   0.003707   0.369370  -0.027647
             31
     1  C    0.000000
     2  C   -0.000001
     3  C    0.000068
     4  C   -0.000163
     5  C    0.000002
     6  C    0.000000
     7  H    0.000000
     8  H   -0.000030
     9  H    0.000000
    10  H    0.000000
    11  C    0.000000
    12  N    0.000000
    13  N    0.001272
    14  C    0.000694
    15  H    0.002096
    16  C   -0.039168
    17  H   -0.003858
    18  C    0.003502
    19  H    0.000030
    20  H   -0.000087
    21  H    0.000009
    22  C   -0.000056
    23  H    0.000003
    24  H    0.000003
    25  H   -0.000001
    26  C   -0.043422
    27  H   -0.004042
    28  H    0.003707
    29  C    0.369370
    30  H   -0.027647
    31  H    0.536613
 Mulliken atomic charges:
              1
     1  C   -0.004467
     2  C   -0.163357
     3  C   -0.193375
     4  C    0.287987
     5  C   -0.176403
     6  C   -0.164324
     7  H    0.203091
     8  H    0.202910
     9  H    0.206637
    10  H    0.203784
    11  C    0.282863
    12  N   -0.480296
    13  N   -0.645835
    14  C   -0.045556
    15  H    0.191784
    16  C   -0.051072
    17  H    0.204325
    18  C   -0.523455
    19  H    0.197566
    20  H    0.202956
    21  H    0.180383
    22  C   -0.549431
    23  H    0.201270
    24  H    0.199866
    25  H    0.190430
    26  C   -0.369970
    27  H    0.196337
    28  H    0.206861
    29  C   -0.394043
    30  H    0.201427
    31  H    0.201107
 Sum of Mulliken atomic charges =   0.00000
 Mulliken charges with hydrogens summed into heavy atoms:
              1
     1  C   -0.004467
     2  C    0.039734
     3  C    0.009535
     4  C    0.287987
     5  C    0.030234
     6  C    0.039460
    11  C    0.282863
    12  N   -0.480296
    13  N   -0.645835
    14  C    0.146229
    16  C    0.153253
    18  C    0.057449
    22  C    0.042135
    26  C    0.033228
    29  C    0.008491
 Sum of Mulliken charges with hydrogens summed into heavy atoms =   0.00000
 Electronic spatial extent (au):  <R**2>=           3846.5592
 Charge=              0.0000 electrons
 Dipole moment (field-independent basis, Debye):
    X=              6.1074    Y=              0.0875    Z=             -0.4881  Tot=              6.1275
 Quadrupole moment (field-independent basis, Debye-Ang):
   XX=           -117.2081   YY=            -83.3366   ZZ=            -90.7083
   XY=             -1.2211   XZ=             -2.5954   YZ=              3.1220
 Traceless Quadrupole moment (field-independent basis, Debye-Ang):
   XX=            -20.1238   YY=             13.7478   ZZ=              6.3760
   XY=             -1.2211   XZ=             -2.5954   YZ=              3.1220
 Octapole moment (field-independent basis, Debye-Ang**2):
  XXX=            238.2669  YYY=              0.0047  ZZZ=             -1.1306  XYY=             -0.7135
  XXY=              6.0280  XXZ=              5.6532  XZZ=              6.0645  YZZ=              0.5084
  YYZ=             -0.7380  XYZ=             -7.6750
 Hexadecapole moment (field-independent basis, Debye-Ang**3):
 XXXX=          -5346.9567 YYYY=           -895.9902 ZZZZ=           -324.0195 XXXY=            -38.3243
 XXXZ=            -54.8488 YYYX=             -1.4265 YYYZ=             14.5238 ZZZX=             -2.1143
 ZZZY=              3.9719 XXYY=           -783.4822 XXZZ=           -717.3072 YYZZ=           -200.7038
 XXYZ=             13.1762 YYXZ=             -2.6367 ZZXY=              4.1858
 N-N= 9.523466899956D+02 E-N=-3.320540595323D+03  KE= 6.067106968284D+02
 1|1|UNPC-DESKTOP-K2VF0AK|SP|RTD-B3LYP-FC|3-21G|C13H16N2|MELIH|25-Dec-2
 024|0||# td b3lyp/3-21g geom=connectivity||Title Card Required||0,1|C,
 0,-2.944059,-0.047353,-0.048951|C,0,-2.208439,-1.200014,-0.287377|C,0,
 -0.829641,-1.16367,-0.216982|C,0,-0.163578,0.013549,0.088626|C,0,-0.90
 9519,1.163168,0.325674|C,0,-2.286675,1.137897,0.259429|H,0,-2.715683,-
 2.113196,-0.524117|H,0,-0.249536,-2.044499,-0.394815|H,0,-0.407295,2.0
 79594,0.56204|H,0,-2.855878,2.026553,0.443126|C,0,-4.37037,-0.077793,-
 0.119428|N,0,-5.509325,-0.101795,-0.175604|N,0,1.258986,0.016519,0.146
 463|C,0,2.00222419,0.89572594,-0.78664995|H,0,1.69265026,0.72710555,-1
 .8170963|C,0,1.94922938,-1.29289509,0.33408635|H,0,1.34779943,-2.09784
 737,-0.07329066|C,0,2.19326083,-1.53841599,1.82476027|H,0,2.81552362,-
 0.74869952,2.22754327|H,0,1.25395717,-1.54228408,2.36557136|H,0,2.6838
 0719,-2.49326859,1.98226709|C,0,1.81342302,2.36851688,-0.42537793|H,0,
 0.77740419,2.66624203,-0.53558252|H,0,2.10962963,2.52394502,0.60454441
 |H,0,2.4182355,2.99749319,-1.0697957|C,0,3.44116469,0.39258335,-0.5972
 736|H,0,4.08624372,0.67620492,-1.41834696|H,0,3.83960522,0.80009783,0.
 32385887|C,0,3.26369657,-1.13369714,-0.47321713|H,0,4.09892526,-1.6157
 6478,0.01658509|H,0,3.14753336,-1.5651314,-1.46093047||Version=IA32W-G
 09RevA.02|State=1-A|HF=-611.1415691|RMSD=8.606e-009|PG=C01 [X(C13H16N2
 )]||@


 THE ENLIGHTENED ONE, BECAUSE HE SAW MANKIND DROWNING  
 IN THE GREAT SEA OF BIRTH, DEATH, AND SORROW, LONGED TO SAVE 
 THEM, FOR THIS HE WAS MOVED TO PITY.                         
 BECAUSE HE SAW MEN OF THE WORLD STRAYING IN FALSE PATHS, AND 
 NONE TO GUIDE THEM, FOR THIS HE WAS MOVED TO PITY.           
                     ..................                       
 BECAUSE HE SAW THE MEN OF THE WORLD PLOUGHING THEIR FIELDS,  
 SOWING THE SEED, TRAFFICKING, HUCKSTERING, BUYING, SELLING,  
 AND AT THE END WINNOWING NOTHING BUT BITTERNESS,             
 FOR THIS HE WAS MOVED TO PITY......                   
                   BUDAH'S PITY - UPSAKA SILA SUTRA           
 Job cpu time:  0 days  0 hours  5 minutes 42.0 seconds.
 File lengths (MBytes):  RWF=     64 Int=      0 D2E=      0 Chk=      5 Scr=      1
 Normal termination of Gaussian 09 at Wed Dec 25 18:11:07 2024.
