 Entering Link 1 = C:\G09W\l1.exe PID=     21000.
  
 Copyright (c) 1988,1990,1992,1993,1995,1998,2003,2009, Gaussian, Inc.
                  All Rights Reserved.
  
 This is part of the Gaussian(R) 09 program.  It is based on
 the Gaussian(R) 03 system (copyright 2003, Gaussian, Inc.),
 the Gaussian(R) 98 system (copyright 1998, Gaussian, Inc.),
 the Gaussian(R) 94 system (copyright 1995, Gaussian, Inc.),
 the Gaussian 92(TM) system (copyright 1992, Gaussian, Inc.),
 the Gaussian 90(TM) system (copyright 1990, Gaussian, Inc.),
 the Gaussian 88(TM) system (copyright 1988, Gaussian, Inc.),
 the Gaussian 86(TM) system (copyright 1986, Carnegie Mellon
 University), and the Gaussian 82(TM) system (copyright 1983,
 Carnegie Mellon University). Gaussian is a federally registered
 trademark of Gaussian, Inc.
  
 This software contains proprietary and confidential information,
 including trade secrets, belonging to Gaussian, Inc.
  
 This software is provided under written license and may be
 used, copied, transmitted, or stored only in accord with that
 written license.
  
 The following legend is applicable only to US Government
 contracts under FAR:
  
                    RESTRICTED RIGHTS LEGEND
  
 Use, reproduction and disclosure by the US Government is
 subject to restrictions as set forth in subparagraphs (a)
 and (c) of the Commercial Computer Software - Restricted
 Rights clause in FAR 52.227-19.
  
 Gaussian, Inc.
 340 Quinnipiac St., Bldg. 40, Wallingford CT 06492
  
  
 ---------------------------------------------------------------
 Warning -- This program may not be used in any manner that
 competes with the business of Gaussian, Inc. or will provide
 assistance to any competitor of Gaussian, Inc.  The licensee
 of this program is prohibited from giving any competitor of
 Gaussian, Inc. access to this program.  By using this program,
 the user acknowledges that Gaussian, Inc. is engaged in the
 business of creating and licensing software in the field of
 computational chemistry and represents and warrants to the
 licensee that it is not a competitor of Gaussian, Inc. and that
 it will not use this program in any manner prohibited above.
 ---------------------------------------------------------------
  

 Cite this work as:
 Gaussian 09, Revision A.02,
 M. J. Frisch, G. W. Trucks, H. B. Schlegel, G. E. Scuseria, 
 M. A. Robb, J. R. Cheeseman, G. Scalmani, V. Barone, B. Mennucci, 
 G. A. Petersson, H. Nakatsuji, M. Caricato, X. Li, H. P. Hratchian, 
 A. F. Izmaylov, J. Bloino, G. Zheng, J. L. Sonnenberg, M. Hada, 
 M. Ehara, K. Toyota, R. Fukuda, J. Hasegawa, M. Ishida, T. Nakajima, 
 Y. Honda, O. Kitao, H. Nakai, T. Vreven, J. A. Montgomery, Jr., 
 J. E. Peralta, F. Ogliaro, M. Bearpark, J. J. Heyd, E. Brothers, 
 K. N. Kudin, V. N. Staroverov, R. Kobayashi, J. Normand, 
 K. Raghavachari, A. Rendell, J. C. Burant, S. S. Iyengar, J. Tomasi, 
 M. Cossi, N. Rega, J. M. Millam, M. Klene, J. E. Knox, J. B. Cross, 
 V. Bakken, C. Adamo, J. Jaramillo, R. Gomperts, R. E. Stratmann, 
 O. Yazyev, A. J. Austin, R. Cammi, C. Pomelli, J. W. Ochterski, 
 R. L. Martin, K. Morokuma, V. G. Zakrzewski, G. A. Voth, 
 P. Salvador, J. J. Dannenberg, S. Dapprich, A. D. Daniels, 
 O. Farkas, J. B. Foresman, J. V. Ortiz, J. Cioslowski, 
 and D. J. Fox, Gaussian, Inc., Wallingford CT, 2009.
 
 ******************************************
 Gaussian 09:  IA32W-G09RevA.02 11-Jun-2009
                25-Dec-2024 
 ******************************************
 %chk=C:\G09W\Hw5\ENERGY320.chk
 ----------------------------------
 # td b3lyp/3-21g geom=connectivity
 ----------------------------------
 1/38=1,57=2/1;
 2/12=2,17=6,18=5,40=1/2;
 3/5=5,11=2,16=1,25=1,30=1,74=-5/1,2,8,3;
 4//1;
 5/5=2,38=5/2;
 8/6=1,10=1/1;
 9/42=1/14;
 6/7=2,8=2,9=2,10=2/1;
 99/5=1,9=1/99;
 -------------------
 Title Card Required
 -------------------
 Symbolic Z-matrix:
 Charge =  0 Multiplicity = 1
 C                     2.94372   0.02276  -0.06321 
 C                     2.2054   -1.03353  -0.57872 
 C                     0.82643  -1.00963  -0.50639 
 C                     0.16299   0.05871   0.0779 
 C                     0.91164   1.11216   0.59171 
 C                     2.28888   1.0993    0.52357 
 H                     2.71062  -1.86237  -1.0315 
 H                     0.24397  -1.81461  -0.90229 
 H                     0.41153   1.9434    1.04651 
 H                     2.86017   1.91365   0.92094 
 C                     4.37018   0.00499  -0.13515 
 N                     5.50924  -0.0089   -0.19247 
 N                    -1.2593    0.04754   0.14124 
 C                    -1.98358  -1.1054   -0.44379 
 H                    -1.67617  -1.2818   -1.47358 
 C                    -1.97592   1.33154  -0.11179 
 H                    -1.39026   1.9675   -0.76614 
 C                    -2.22669   2.05237   1.21465 
 H                    -2.83348   1.42885   1.85973 
 H                    -1.28833   2.25339   1.71849 
 H                    -2.7365    2.99578   1.04958 
 C                    -1.76571  -2.37132   0.384 
 H                    -0.72379  -2.66864   0.37299 
 H                    -2.06002  -2.18239   1.40885 
 H                    -2.35697  -3.18988  -0.01231 
 C                    -3.43256  -0.59587  -0.42394 
 H                    -4.07079  -1.14797  -1.10113 
 H                    -3.8239   -0.68276   0.58234 
 C                    -3.28592   0.88842  -0.81355 
 H                    -4.13127   1.4893   -0.50657 
 H                    -3.1772    0.97035  -1.88904 
 
                          Input orientation:                          
 ---------------------------------------------------------------------
 Center     Atomic      Atomic             Coordinates (Angstroms)
 Number     Number       Type             X           Y           Z
 ---------------------------------------------------------------------
      1          6           0        2.943724    0.022759   -0.063209
      2          6           0        2.205399   -1.033526   -0.578719
      3          6           0        0.826429   -1.009626   -0.506386
      4          6           0        0.162985    0.058706    0.077899
      5          6           0        0.911643    1.112156    0.591706
      6          6           0        2.288879    1.099299    0.523567
      7          1           0        2.710617   -1.862371   -1.031504
      8          1           0        0.243971   -1.814613   -0.902294
      9          1           0        0.411527    1.943401    1.046514
     10          1           0        2.860169    1.913649    0.920940
     11          6           0        4.370175    0.004989   -0.135148
     12          7           0        5.509243   -0.008904   -0.192469
     13          7           0       -1.259304    0.047543    0.141237
     14          6           0       -1.983579   -1.105399   -0.443794
     15          1           0       -1.676166   -1.281795   -1.473584
     16          6           0       -1.975921    1.331536   -0.111795
     17          1           0       -1.390259    1.967502   -0.766143
     18          6           0       -2.226694    2.052366    1.214650
     19          1           0       -2.833485    1.428848    1.859728
     20          1           0       -1.288334    2.253394    1.718486
     21          1           0       -2.736501    2.995784    1.049581
     22          6           0       -1.765710   -2.371324    0.383998
     23          1           0       -0.723785   -2.668639    0.372995
     24          1           0       -2.060023   -2.182395    1.408849
     25          1           0       -2.356972   -3.189879   -0.012313
     26          6           0       -3.432564   -0.595870   -0.423943
     27          1           0       -4.070795   -1.147967   -1.101130
     28          1           0       -3.823896   -0.682763    0.582345
     29          6           0       -3.285919    0.888419   -0.813551
     30          1           0       -4.131266    1.489296   -0.506571
     31          1           0       -3.177205    0.970352   -1.889041
 ---------------------------------------------------------------------
                    Distance matrix (angstroms):
                    1          2          3          4          5
     1  C    0.000000
     2  C    1.388025   0.000000
     3  C    2.396907   1.381073   0.000000
     4  C    2.784549   2.407400   1.386680   0.000000
     5  C    2.396884   2.765439   2.390612   1.390771   0.000000
     6  C    1.389988   2.402279   2.765344   2.408501   1.378981
     7  H    2.132053   1.071095   2.133796   3.378127   3.836526
     8  H    3.371745   2.135883   1.069581   2.115812   3.353177
     9  H    3.366359   3.836855   3.362144   2.133557   1.071417
    10  H    2.133306   3.370985   3.836521   3.380286   2.132496
    11  C    1.428374   2.441623   3.704780   4.212923   3.703455
    12  N    2.568968   3.480578   4.798826   5.353517   4.796836
    13  N    4.208070   3.700164   2.426377   1.423742   2.459539
    14  C    5.069112   4.191766   2.812336   2.497006   3.791058
    15  H    5.003439   3.991111   2.696763   2.754364   4.085729
    16  C    5.090988   4.826486   3.672861   2.496197   2.980112
    17  H    4.802036   4.687222   3.720816   2.601630   2.806087
    18  C    5.699601   5.690550   4.653958   3.313224   3.334849
    19  H    6.249073   6.115526   4.993959   3.745803   3.966630
    20  H    5.104947   5.318567   4.479908   3.100727   2.722490
    21  H    6.507084   6.580963   5.582008   4.240002   4.131182
    22  C    5.301924   4.299562   3.060423   3.117468   4.398408
    23  H    4.569959   3.487044   2.434913   2.883029   4.125151
    24  H    5.662786   4.843981   3.657201   3.425744   4.511384
    25  H    6.198468   5.077982   3.889942   4.112374   5.436560
    26  C    6.416376   5.657042   4.279838   3.688941   4.777136
    27  H    7.186888   6.298938   4.935145   4.557528   5.727001
    28  H    6.834851   6.150082   4.787243   4.086498   5.064302
    29  C    6.334100   5.822679   4.539640   3.657601   4.432193
    30  H    7.238977   6.820789   5.551878   4.563856   5.174880
    31  H    6.457350   5.891086   4.675589   3.982062   4.784652
                    6          7          8          9         10
     6  C    0.000000
     7  H    3.371587   0.000000
     8  H    3.834790   2.470490   0.000000
     9  H    2.123778   4.907940   4.236578   0.000000
    10  H    1.071188   4.253555   4.905977   2.452040   0.000000
    11  C    2.441969   2.654170   4.574388   4.563404   2.653003
    12  N    3.480167   3.460004   5.611375   5.597614   3.457381
    13  N    3.720480   4.558878   2.610827   2.684303   4.589155
    14  C    4.904118   4.791021   2.382265   4.153640   5.868479
    15  H    5.037837   4.447063   2.072967   4.594698   6.043422
    16  C    4.318117   5.745480   3.930784   2.723227   4.979273
    17  H    3.994144   5.617431   4.122334   2.555923   4.573324
    18  C    4.666512   6.689351   5.053629   2.645818   5.097223
    19  H    5.304012   7.066004   5.255430   3.384698   5.790859
    20  H    3.944137   6.363456   5.075936   1.853960   4.238110
    21  H    5.397017   7.589709   5.986063   3.319277   5.701779
    22  C    5.338951   4.722307   2.450162   4.878129   6.328353
    23  H    4.826611   3.797078   1.814463   4.797236   5.843145
    24  H    5.519618   5.368123   3.284058   4.823073   6.420585
    25  H    6.345718   5.336805   3.073813   5.927585   7.357684
    26  C    6.042043   6.301732   3.902699   4.836029   6.906872
    27  H    6.937961   6.819294   4.370487   5.853216   7.842227
    28  H    6.367513   6.833436   4.475799   5.005098   7.178630
    29  C    5.736787   6.600969   4.446839   4.271292   6.467917
    30  H    6.513950   7.636792   5.496827   4.822370   7.148288
    31  H    5.976235   6.589851   4.520414   4.737437   6.725748
                   11         12         13         14         15
    11  C    0.000000
    12  N    1.140594   0.000000
    13  N    5.636420   6.777003   0.000000
    14  C    6.457431   7.576796   1.481928   0.000000
    15  H    6.324987   7.408887   2.132735   1.089075   0.000000
    16  C    6.483302   7.604667   1.492046   2.459457   2.962064
    17  H    6.118187   7.199890   2.127611   3.146213   3.337686
    18  C    7.037925   8.128564   2.471310   3.575055   4.318138
    19  H    7.609180   8.710899   2.709107   3.528592   4.449488
    20  H    6.364747   7.414633   2.711887   4.054665   4.778837
    21  H    7.800852   8.863585   3.420428   4.429081   5.078224
    22  C    6.600414   7.670612   2.483203   1.528160   2.155388
    23  H    5.775373   6.800337   2.778154   2.167474   2.498043
    24  H    6.965344   8.036297   2.687120   2.144307   3.044149
    25  H    7.448273   8.486954   3.421893   2.161170   2.497917
    26  C    7.831166   8.964040   2.335908   1.536089   2.158048
    27  H    8.573937   9.690214   3.298060   2.188692   2.427113
    28  H    8.254127   9.389458   2.702787   2.149035   3.032891
    29  C    7.736695   8.862607   2.392877   2.410004   2.781506
    30  H    8.638033   9.761285   3.278181   3.368819   3.826431
    31  H    7.808394   8.904587   2.941420   2.796824   2.738227
                   16         17         18         19         20
    16  C    0.000000
    17  H    1.084262   0.000000
    18  C    1.530340   2.151829   0.000000
    19  H    2.152159   3.044380   1.083095   0.000000
    20  H    2.161603   2.503099   1.083874   1.757076   0.000000
    21  H    2.167256   2.483262   1.084983   1.766644   1.759479
    22  C    3.741813   4.504353   4.524547   4.214170   4.837020
    23  H    4.219510   4.820335   5.025436   4.842583   5.133758
    24  H    3.829770   4.732950   4.242486   3.720566   4.513047
    25  H    4.538533   5.301072   5.385493   5.006420   5.810926
    26  C    2.436008   3.295297   3.339500   3.110231   4.160051
    27  H    3.393408   4.123546   4.359550   4.115531   5.221262
    28  H    2.820327   3.842514   3.229829   2.659234   4.042390
    29  C    1.550777   2.181786   2.567164   2.764631   3.502101
    30  H    2.196873   2.794490   2.628125   2.699493   3.690120
    31  H    2.175349   2.334177   3.421568   3.792312   4.269459
                   21         22         23         24         25
    21  H    0.000000
    22  C    5.494659   0.000000
    23  H    6.049337   1.083570   0.000000
    24  H    5.234523   1.082883   1.759250   0.000000
    25  H    6.287613   1.084751   1.757114   1.767174   0.000000
    26  C    3.944078   2.565815   3.502708   2.785688   2.838172
    27  H    4.855571   3.002602   3.960803   3.378348   2.879603
    28  H    3.864253   2.669590   3.687576   2.458303   2.964981
    29  C    2.866027   3.790921   4.541485   3.983940   4.258807
    30  H    2.576138   4.614472   5.447291   4.630356   5.028626
    31  H    3.596123   4.280867   4.937442   4.697232   4.637069
                   26         27         28         29         30
    26  C    0.000000
    27  H    1.082004   0.000000
    28  H    1.083193   1.763933   0.000000
    29  C    1.541562   2.201272   2.169461   0.000000
    30  H    2.200665   2.704129   2.449093   1.081620   0.000000
    31  H    2.159808   2.430346   3.042819   1.084071   1.758055
                   31
    31  H    0.000000
 Stoichiometry    C13H16N2
 Framework group  C1[X(C13H16N2)]
 Deg. of freedom    87
 Full point group                 C1      NOp   1
 Largest Abelian subgroup         C1      NOp   1
 Largest concise Abelian subgroup C1      NOp   1
                         Standard orientation:                         
 ---------------------------------------------------------------------
 Center     Atomic      Atomic             Coordinates (Angstroms)
 Number     Number       Type             X           Y           Z
 ---------------------------------------------------------------------
      1          6           0       -2.944080   -0.032181   -0.057360
      2          6           0       -2.225752    1.130930   -0.297756
      3          6           0       -0.846380    1.114368   -0.231269
      4          6           0       -0.162757   -0.052542    0.075098
      5          6           0       -0.891471   -1.212671    0.314519
      6          6           0       -2.268904   -1.207810    0.249401
      7          1           0       -2.746625    2.036295   -0.534924
      8          1           0       -0.279173    2.001859   -0.417391
      9          1           0       -0.375651   -2.120947    0.553053
     10          1           0       -2.824777   -2.104539    0.434672
     11          6           0       -4.370817   -0.022495   -0.125039
     12          7           0       -5.510108   -0.015079   -0.179035
     13          7           0        1.259289   -0.032149    0.141505
     14          6           0        1.961688    1.241421   -0.142688
     15          1           0        1.648393    1.658819   -1.098570
     16          6           0        1.997529   -1.202465   -0.416676
     17          1           0        1.421261   -1.669344   -1.207601
     18          6           0        2.264526   -2.221218    0.693637
     19          1           0        2.862112   -1.763768    1.472563
     20          1           0        1.331219   -2.555840    1.131528
     21          1           0        2.790281   -3.086504    0.303700
     22          6           0        1.724024    2.262470    0.969178
     23          1           0        0.677037    2.535046    1.029553
     24          1           0        2.024426    1.833898    1.917187
     25          1           0        2.299795    3.163368    0.785998
     26          6           0        3.419404    0.768115   -0.245729
     27          1           0        4.046015    1.480193   -0.766339
     28          1           0        3.811940    0.613198    0.751880
     29          6           0        3.297638   -0.578199   -0.986690
     30          1           0        4.154201   -1.220908   -0.834615
     31          1           0        3.187398   -0.396572   -2.049737
 ---------------------------------------------------------------------
 Rotational constants (GHZ):      1.4256282      0.3277675      0.2829522
 Standard basis: 3-21G (6D, 7F)
 There are   167 symmetry adapted basis functions of A   symmetry.
 Integral buffers will be    262144 words long.
 Raffenetti 2 integral format.
 Two-electron integral symmetry is turned on.
   167 basis functions,   273 primitive gaussians,   167 cartesian basis functions
    54 alpha electrons       54 beta electrons
       nuclear repulsion energy       953.3334328356 Hartrees.
 NAtoms=   31 NActive=   31 NUniq=   31 SFac= 7.50D-01 NAtFMM=   80 NAOKFM=F Big=F
 One-electron integrals computed using PRISM.
 NBasis=   167 RedAO= T  NBF=   167
 NBsUse=   167 1.00D-06 NBFU=   167
 Harris functional with IExCor=  402 diagonalized for initial guess.
 ExpMin= 1.83D-01 ExpMax= 2.43D+02 ExpMxC= 2.43D+02 IAcc=1 IRadAn=         1 AccDes= 0.00D+00
 HarFok:  IExCor=  402 AccDes= 0.00D+00 IRadAn=         1 IDoV= 1
 ScaDFX=  1.000000  1.000000  1.000000  1.000000
 FoFCou: FMM=F IPFlag=           0 FMFlag=      100000 FMFlg1=           0
         NFxFlg=           0 DoJE=T BraDBF=F KetDBF=T FulRan=T
         Omega=  0.000000  0.000000  1.000000  0.000000  0.000000 ICntrl=     500 IOpCl=  0
         NMat0=    1 NMatS0=    1 NMatT0=    0 NMatD0=    1 NMtDS0=    0 NMtDT0=    0
         I1Cent=           4 NGrid=           0.
 Petite list used in FoFCou.
 Initial guess orbital symmetries:
       Occupied  (A) (A) (A) (A) (A) (A) (A) (A) (A) (A) (A) (A)
                 (A) (A) (A) (A) (A) (A) (A) (A) (A) (A) (A) (A)
                 (A) (A) (A) (A) (A) (A) (A) (A) (A) (A) (A) (A)
                 (A) (A) (A) (A) (A) (A) (A) (A) (A) (A) (A) (A)
                 (A) (A) (A) (A) (A) (A)
       Virtual   (A) (A) (A) (A) (A) (A) (A) (A) (A) (A) (A) (A)
                 (A) (A) (A) (A) (A) (A) (A) (A) (A) (A) (A) (A)
                 (A) (A) (A) (A) (A) (A) (A) (A) (A) (A) (A) (A)
                 (A) (A) (A) (A) (A) (A) (A) (A) (A) (A) (A) (A)
                 (A) (A) (A) (A) (A) (A) (A) (A) (A) (A) (A) (A)
                 (A) (A) (A) (A) (A) (A) (A) (A) (A) (A) (A) (A)
                 (A) (A) (A) (A) (A) (A) (A) (A) (A) (A) (A) (A)
                 (A) (A) (A) (A) (A) (A) (A) (A) (A) (A) (A) (A)
                 (A) (A) (A) (A) (A) (A) (A) (A) (A) (A) (A) (A)
                 (A) (A) (A) (A) (A)
 The electronic state of the initial guess is 1-A.
 Requested convergence on RMS density matrix=1.00D-08 within 128 cycles.
 Requested convergence on MAX density matrix=1.00D-06.
 Requested convergence on             energy=1.00D-06.
 No special actions if energy rises.
 Integral accuracy reduced to 1.0D-05 until final iterations.
 Initial convergence to 1.0D-05 achieved.  Increase integral accuracy.
 SCF Done:  E(RB3LYP) =  -611.149877017     A.U. after   15 cycles
             Convg  =    0.5384D-08             -V/T =  2.0074
 ExpMin= 1.83D-01 ExpMax= 2.43D+02 ExpMxC= 2.43D+02 IAcc=1 IRadAn=         1 AccDes= 0.00D+00
 HarFok:  IExCor=  205 AccDes= 0.00D+00 IRadAn=         1 IDoV=-2
 ScaDFX=  1.000000  1.000000  1.000000  1.000000
 Range of M.O.s used for correlation:    16   167
 NBasis=   167 NAE=    54 NBE=    54 NFC=    15 NFV=     0
 NROrb=    152 NOA=    39 NOB=    39 NVA=   113 NVB=   113
 Would need an additional   268100000 words for in-memory AO integral storage.
 Orbital symmetries:
       Occupied  (A) (A) (A) (A) (A) (A) (A) (A) (A) (A) (A) (A)
                 (A) (A) (A) (A) (A) (A) (A) (A) (A) (A) (A) (A)
                 (A) (A) (A) (A) (A) (A) (A) (A) (A) (A) (A) (A)
                 (A) (A) (A) (A) (A) (A) (A) (A) (A) (A) (A) (A)
                 (A) (A) (A) (A) (A) (A)
       Virtual   (A) (A) (A) (A) (A) (A) (A) (A) (A) (A) (A) (A)
                 (A) (A) (A) (A) (A) (A) (A) (A) (A) (A) (A) (A)
                 (A) (A) (A) (A) (A) (A) (A) (A) (A) (A) (A) (A)
                 (A) (A) (A) (A) (A) (A) (A) (A) (A) (A) (A) (A)
                 (A) (A) (A) (A) (A) (A) (A) (A) (A) (A) (A) (A)
                 (A) (A) (A) (A) (A) (A) (A) (A) (A) (A) (A) (A)
                 (A) (A) (A) (A) (A) (A) (A) (A) (A) (A) (A) (A)
                 (A) (A) (A) (A) (A) (A) (A) (A) (A) (A) (A) (A)
                 (A) (A) (A) (A) (A) (A) (A) (A) (A) (A) (A) (A)
                 (A) (A) (A) (A) (A)
    12 initial guesses have been made.
 Convergence on wavefunction:    0.001000000000000
 Iteration     1 Dimension    12 NMult    12
 CISAX will form    12 AO SS matrices at one time.
 New state      1 was old state      2
 New state      2 was old state      1
 Iteration     2 Dimension    18 NMult    18
 Iteration     3 Dimension    24 NMult    24
 Iteration     4 Dimension    30 NMult    30
 Iteration     5 Dimension    36 NMult    36
 Iteration     6 Dimension    38 NMult    38
 ***********************************************************************
 Excited states from <AA,BB:AA,BB> singles matrix:
 ***********************************************************************
 
 Ground to excited state transition electric dipole moments (Au):
       state          X           Y           Z        Dip. S.      Osc.
         1         0.2048      0.3675     -0.0876      0.1847      0.0210
         2         1.9841     -0.0345      0.0168      3.9381      0.4632
         3         0.0505     -0.4363      0.1092      0.2049      0.0303
 Ground to excited state transition velocity dipole moments (Au):
       state          X           Y           Z        Dip. S.      Osc.
         1        -0.0304     -0.0551      0.0152      0.0042      0.0164
         2        -0.2847      0.0047      0.0041      0.0811      0.3065
         3        -0.0076      0.0808     -0.0206      0.0070      0.0211
 Ground to excited state transition magnetic dipole moments (Au):
       state          X           Y           Z
         1        -0.0325      0.1192      0.7270
         2         0.0859     -0.0543     -0.1012
         3         0.0377     -0.0769     -0.4355
 <0|del|b> * <b|rxdel|0> + <0|del|b> * <b|delr+rdel|0>
 Rotatory Strengths (R) in cgs (10**-40 erg-esu-cm/Gauss)
       state          XX          YY          ZZ    R(velocity)
         1         9.8227     21.6682     -8.7682      7.5742
 Total R(velocity) tensor for State=          1
                 1             2             3 
      1   0.982272D+01  0.489726D+01  0.373988D+02
      2  -0.404826D+01  0.216682D+02  0.704499D+02
      3   0.191801D+00 -0.252465D+01 -0.876818D+01
 R(velocity) tensor in inp. orien. for State=          1
                 1             2             3 
      1   0.990300D+01  0.143866D+02 -0.361851D+02
      2  -0.358689D+01  0.357724D+02 -0.585382D+02
      3  -0.102582D+01  0.137836D+02 -0.229526D+02
         2        -2.0129    -40.4782    -58.2327    -33.5746
 Total R(velocity) tensor for State=          2
                 1             2             3 
      1  -0.201285D+01 -0.100090D+03 -0.259508D+02
      2  -0.302185D+01 -0.404782D+02 -0.162249D+03
      3   0.577685D-01  0.553903D+02 -0.582327D+02
 R(velocity) tensor in inp. orien. for State=          2
                 1             2             3 
      1  -0.388550D+01 -0.104657D+03  0.340369D+01
      2  -0.357401D+01 -0.650031D+02  0.160042D+03
      3  -0.187815D+01 -0.572595D+02 -0.318351D+02
         3         5.0010      5.0002     -2.1101      2.6304
 Total R(velocity) tensor for State=          3
                 1             2             3 
      1   0.500100D+01  0.252998D+00 -0.843279D+00
      2  -0.182612D+01  0.500024D+01  0.202713D+02
      3   0.175713D+01 -0.373798D+00 -0.211006D+01
 R(velocity) tensor in inp. orien. for State=          3
                 1             2             3 
      1   0.497528D+01  0.123558D+00  0.543999D+00
      2  -0.131370D+01  0.931483D+01 -0.174042D+02
      3  -0.212473D+01  0.328676D+01 -0.639893D+01
 1/2[<0|r|b>*<b|rxdel|0> + (<0|rxdel|b>*<b|r|0>)*]
 Rotatory Strengths (R) in cgs (10**-40 erg-esu-cm/Gauss)
       state          XX          YY          ZZ     R(length)     R(au)
         1         4.7137    -30.9818     45.0195      6.2505      0.0133
         2      -120.5257     -1.3259      1.1989    -40.2176     -0.0853
         3        -1.3450    -23.7429     33.6249      2.8457      0.0060
  1/2[<0|del|b>*<b|r|0> + (<0|r|b>*<b|del|0>)*] (Au)
       state          X           Y           Z        Dip. S.   Osc.(frdel)
         1        -0.0062     -0.0203     -0.0013      0.0278      0.0185
         2        -0.5649     -0.0002      0.0001      0.5650      0.3767
         3        -0.0004     -0.0353     -0.0023      0.0379      0.0253
 Ground to excited state transition densities written to RWF  633

 Excitation energies and oscillator strengths:
 
 Excited State   1:      Singlet-A      4.6350 eV  267.50 nm  f=0.0210  <S**2>=0.000
      53 -> 55         0.19029
      54 -> 55         0.10568
      54 -> 56         0.67084
 This state for optimization and/or second-order correction.
 Copying the excited state density for this state as the 1-particle RhoCI density.
 
 Excited State   2:      Singlet-A      4.8007 eV  258.26 nm  f=0.4632  <S**2>=0.000
      54 -> 55         0.68632
      54 -> 56        -0.10354
 
 Excited State   3:      Singlet-A      6.0370 eV  205.37 nm  f=0.0303  <S**2>=0.000
      52 -> 56        -0.41438
      53 -> 55         0.55108
      54 -> 56        -0.14069
 SavETr:  write IOETrn=   770 NScale= 10 NData=  16 NLR=1 LETran=      62.

 **********************************************************************

            Population analysis using the SCF density.

 **********************************************************************

 Orbital symmetries:
       Occupied  (A) (A) (A) (A) (A) (A) (A) (A) (A) (A) (A) (A)
                 (A) (A) (A) (A) (A) (A) (A) (A) (A) (A) (A) (A)
                 (A) (A) (A) (A) (A) (A) (A) (A) (A) (A) (A) (A)
                 (A) (A) (A) (A) (A) (A) (A) (A) (A) (A) (A) (A)
                 (A) (A) (A) (A) (A) (A)
       Virtual   (A) (A) (A) (A) (A) (A) (A) (A) (A) (A) (A) (A)
                 (A) (A) (A) (A) (A) (A) (A) (A) (A) (A) (A) (A)
                 (A) (A) (A) (A) (A) (A) (A) (A) (A) (A) (A) (A)
                 (A) (A) (A) (A) (A) (A) (A) (A) (A) (A) (A) (A)
                 (A) (A) (A) (A) (A) (A) (A) (A) (A) (A) (A) (A)
                 (A) (A) (A) (A) (A) (A) (A) (A) (A) (A) (A) (A)
                 (A) (A) (A) (A) (A) (A) (A) (A) (A) (A) (A) (A)
                 (A) (A) (A) (A) (A) (A) (A) (A) (A) (A) (A) (A)
                 (A) (A) (A) (A) (A) (A) (A) (A) (A) (A) (A) (A)
                 (A) (A) (A) (A) (A)
 The electronic state is 1-A.
 Alpha  occ. eigenvalues --  -14.27287 -14.23470 -10.17854 -10.16849 -10.16795
 Alpha  occ. eigenvalues --  -10.15821 -10.14624 -10.14331 -10.14312 -10.13279
 Alpha  occ. eigenvalues --  -10.13159 -10.13098 -10.13055 -10.11502 -10.11488
 Alpha  occ. eigenvalues --   -0.96350  -0.92335  -0.88026  -0.81479  -0.79762
 Alpha  occ. eigenvalues --   -0.76672  -0.75581  -0.72556  -0.66018  -0.64878
 Alpha  occ. eigenvalues --   -0.64145  -0.58928  -0.58043  -0.56878  -0.53578
 Alpha  occ. eigenvalues --   -0.49916  -0.48448  -0.47168  -0.46874  -0.44959
 Alpha  occ. eigenvalues --   -0.43317  -0.42734  -0.42193  -0.41553  -0.40359
 Alpha  occ. eigenvalues --   -0.39737  -0.38545  -0.38196  -0.37843  -0.35544
 Alpha  occ. eigenvalues --   -0.34854  -0.34360  -0.34039  -0.33821  -0.33229
 Alpha  occ. eigenvalues --   -0.32698  -0.28201  -0.26859  -0.20627
 Alpha virt. eigenvalues --   -0.02079  -0.00832   0.06444   0.09107   0.10429
 Alpha virt. eigenvalues --    0.10606   0.11904   0.12449   0.13533   0.15109
 Alpha virt. eigenvalues --    0.15829   0.16125   0.16282   0.18208   0.18299
 Alpha virt. eigenvalues --    0.18981   0.20021   0.20300   0.20538   0.21542
 Alpha virt. eigenvalues --    0.22127   0.23232   0.23470   0.24656   0.26593
 Alpha virt. eigenvalues --    0.27293   0.28447   0.29671   0.31044   0.31400
 Alpha virt. eigenvalues --    0.35959   0.37076   0.39069   0.39741   0.51939
 Alpha virt. eigenvalues --    0.54921   0.60743   0.63875   0.66302   0.66597
 Alpha virt. eigenvalues --    0.67699   0.68559   0.69875   0.70945   0.71109
 Alpha virt. eigenvalues --    0.72076   0.72875   0.73664   0.75083   0.76050
 Alpha virt. eigenvalues --    0.76897   0.77895   0.78066   0.78747   0.79925
 Alpha virt. eigenvalues --    0.80644   0.81506   0.85146   0.86399   0.87239
 Alpha virt. eigenvalues --    0.89172   0.90081   0.92827   0.94616   0.95038
 Alpha virt. eigenvalues --    0.96509   0.96756   0.99505   1.00513   1.01824
 Alpha virt. eigenvalues --    1.02695   1.04674   1.05686   1.07478   1.07946
 Alpha virt. eigenvalues --    1.08487   1.09992   1.10787   1.11966   1.13977
 Alpha virt. eigenvalues --    1.14610   1.16493   1.17731   1.18663   1.21527
 Alpha virt. eigenvalues --    1.22710   1.23642   1.27447   1.28933   1.31034
 Alpha virt. eigenvalues --    1.33038   1.37349   1.40840   1.45264   1.50029
 Alpha virt. eigenvalues --    1.52209   1.52633   1.54708   1.55661   1.61987
 Alpha virt. eigenvalues --    1.73578   1.76508   1.79435   1.90752   1.91284
 Alpha virt. eigenvalues --    1.96337   2.01777   2.19297   2.31945   2.43018
 Alpha virt. eigenvalues --    2.51250   3.00621   3.05959
          Condensed to atoms (all electrons):
              1          2          3          4          5          6
     1  C    5.439241   0.451680  -0.086918  -0.030972  -0.087288   0.447351
     2  C    0.451680   5.125008   0.441284  -0.057045  -0.031891  -0.055254
     3  C   -0.086918   0.441284   5.254767   0.396997  -0.065858  -0.033064
     4  C   -0.030972  -0.057045   0.396997   4.943035   0.416212  -0.060652
     5  C   -0.087288  -0.031891  -0.065858   0.416212   5.214491   0.453176
     6  C    0.447351  -0.055254  -0.033064  -0.060652   0.453176   5.121747
     7  H   -0.042703   0.396749  -0.034970   0.003988  -0.000166   0.003816
     8  H    0.004382  -0.037712   0.392788  -0.052713   0.004191  -0.000165
     9  H    0.004462  -0.000220   0.004463  -0.049218   0.382793  -0.038128
    10  H   -0.042636   0.003787  -0.000156   0.004064  -0.034839   0.396846
    11  C    0.070113  -0.076803   0.004679  -0.000127   0.004476  -0.076899
    12  N   -0.118790  -0.000717  -0.000006   0.000000  -0.000005  -0.000700
    13  N   -0.000368   0.004817  -0.055784   0.292860  -0.057937   0.003939
    14  C    0.000011   0.000225  -0.006153  -0.062218   0.002258  -0.000120
    15  H   -0.000005  -0.000252   0.001181  -0.001610   0.000100   0.000001
    16  C    0.000017  -0.000103   0.001401  -0.063850  -0.003684  -0.000003
    17  H   -0.000014  -0.000037   0.001096  -0.001426   0.004037  -0.000034
    18  C   -0.000003   0.000003  -0.000137  -0.000011  -0.006663   0.000128
    19  H    0.000000   0.000000   0.000004   0.000121   0.000112  -0.000002
    20  H    0.000001  -0.000001   0.000003   0.000157  -0.001268   0.000057
    21  H    0.000000   0.000000   0.000003  -0.000006   0.000082  -0.000001
    22  C   -0.000013   0.000104  -0.012725  -0.002216  -0.000145   0.000009
    23  H   -0.000014   0.000416   0.002150   0.000115  -0.000029  -0.000005
    24  H    0.000001  -0.000012   0.000088   0.000602  -0.000017   0.000000
    25  H    0.000000  -0.000002   0.000079   0.000027   0.000000   0.000000
    26  C    0.000000  -0.000004   0.000211   0.004895  -0.000100   0.000001
    27  H    0.000000   0.000000   0.000011  -0.000087   0.000001   0.000000
    28  H    0.000000   0.000000  -0.000013  -0.000104   0.000003   0.000000
    29  C    0.000000   0.000002  -0.000170   0.004688   0.000067   0.000000
    30  H    0.000000   0.000000   0.000001  -0.000059  -0.000001   0.000000
    31  H    0.000000   0.000000  -0.000003  -0.000150   0.000009   0.000000
              7          8          9         10         11         12
     1  C   -0.042703   0.004382   0.004462  -0.042636   0.070113  -0.118790
     2  C    0.396749  -0.037712  -0.000220   0.003787  -0.076803  -0.000717
     3  C   -0.034970   0.392788   0.004463  -0.000156   0.004679  -0.000006
     4  C    0.003988  -0.052713  -0.049218   0.004064  -0.000127   0.000000
     5  C   -0.000166   0.004191   0.382793  -0.034839   0.004476  -0.000005
     6  C    0.003816  -0.000165  -0.038128   0.396846  -0.076899  -0.000700
     7  H    0.481618  -0.003885   0.000002  -0.000053  -0.006284  -0.000096
     8  H   -0.003885   0.496747  -0.000046   0.000002  -0.000079   0.000000
     9  H    0.000002  -0.000046   0.486918  -0.003986  -0.000081   0.000000
    10  H   -0.000053   0.000002  -0.003986   0.480219  -0.006233  -0.000094
    11  C   -0.006284  -0.000079  -0.000081  -0.006233   4.956662   0.849917
    12  N   -0.000096   0.000000   0.000000  -0.000094   0.849917   6.753438
    13  N   -0.000017  -0.009514  -0.006515  -0.000015   0.000000   0.000000
    14  C   -0.000004   0.003058   0.000002   0.000000   0.000000   0.000000
    15  H    0.000002   0.005540   0.000004   0.000000   0.000000   0.000000
    16  C    0.000001  -0.000010   0.000484  -0.000002   0.000000   0.000000
    17  H    0.000000   0.000028   0.000462  -0.000001   0.000000   0.000000
    18  C    0.000000  -0.000006   0.000807   0.000003   0.000000   0.000000
    19  H    0.000000   0.000000  -0.000090   0.000000   0.000000   0.000000
    20  H    0.000000   0.000000   0.012842  -0.000008   0.000000   0.000000
    21  H    0.000000   0.000000   0.000168   0.000000   0.000000   0.000000
    22  C    0.000010  -0.006107  -0.000005   0.000000   0.000000   0.000000
    23  H    0.000007   0.003271  -0.000001   0.000000   0.000000   0.000000
    24  H    0.000000   0.000130   0.000000   0.000000   0.000000   0.000000
    25  H    0.000000   0.000539   0.000000   0.000000   0.000000   0.000000
    26  C    0.000000   0.000115  -0.000007   0.000000   0.000000   0.000000
    27  H    0.000000   0.000003   0.000000   0.000000   0.000000   0.000000
    28  H    0.000000   0.000003   0.000000   0.000000   0.000000   0.000000
    29  C    0.000000  -0.000032   0.000058   0.000000   0.000000   0.000000
    30  H    0.000000   0.000000   0.000000   0.000000   0.000000   0.000000
    31  H    0.000000  -0.000002  -0.000001   0.000000   0.000000   0.000000
             13         14         15         16         17         18
     1  C   -0.000368   0.000011  -0.000005   0.000017  -0.000014  -0.000003
     2  C    0.004817   0.000225  -0.000252  -0.000103  -0.000037   0.000003
     3  C   -0.055784  -0.006153   0.001181   0.001401   0.001096  -0.000137
     4  C    0.292860  -0.062218  -0.001610  -0.063850  -0.001426  -0.000011
     5  C   -0.057937   0.002258   0.000100  -0.003684   0.004037  -0.006663
     6  C    0.003939  -0.000120   0.000001  -0.000003  -0.000034   0.000128
     7  H   -0.000017  -0.000004   0.000002   0.000001   0.000000   0.000000
     8  H   -0.009514   0.003058   0.005540  -0.000010   0.000028  -0.000006
     9  H   -0.006515   0.000002   0.000004   0.000484   0.000462   0.000807
    10  H   -0.000015   0.000000   0.000000  -0.000002  -0.000001   0.000003
    11  C    0.000000   0.000000   0.000000   0.000000   0.000000   0.000000
    12  N    0.000000   0.000000   0.000000   0.000000   0.000000   0.000000
    13  N    7.268900   0.254398  -0.047508   0.259730  -0.039940  -0.064704
    14  C    0.254398   5.317886   0.351909  -0.079080   0.001074   0.005016
    15  H   -0.047508   0.351909   0.598077   0.000784   0.000937  -0.000229
    16  C    0.259730  -0.079080   0.000784   5.313212   0.370663   0.266511
    17  H   -0.039940   0.001074   0.000937   0.370663   0.550306  -0.061172
    18  C   -0.064704   0.005016  -0.000229   0.266511  -0.061172   5.409136
    19  H    0.002319   0.000161   0.000025  -0.042543   0.004026   0.361870
    20  H   -0.001216  -0.000053  -0.000001  -0.040706  -0.002276   0.359614
    21  H    0.003010  -0.000130   0.000008  -0.037631   0.001895   0.339756
    22  C   -0.054715   0.277886  -0.061649   0.004331  -0.000134  -0.000090
    23  H   -0.002456  -0.042470  -0.004210  -0.000028  -0.000004   0.000005
    24  H    0.002728  -0.041074   0.004547   0.000039   0.000007  -0.000040
    25  H    0.002748  -0.038730   0.001653  -0.000086   0.000003  -0.000001
    26  C   -0.068119   0.271465  -0.045379  -0.091570   0.004708   0.000673
    27  H    0.002618  -0.037263  -0.001154   0.004039  -0.000038  -0.000100
    28  H    0.001099  -0.046472   0.004203   0.000506   0.000011   0.000911
    29  C   -0.052215  -0.091518  -0.001809   0.274043  -0.036142  -0.072098
    30  H    0.002306   0.004301  -0.000114  -0.039005   0.001344  -0.002437
    31  H    0.001238   0.000814   0.002012  -0.039342  -0.004392   0.003528
             19         20         21         22         23         24
     1  C    0.000000   0.000001   0.000000  -0.000013  -0.000014   0.000001
     2  C    0.000000  -0.000001   0.000000   0.000104   0.000416  -0.000012
     3  C    0.000004   0.000003   0.000003  -0.012725   0.002150   0.000088
     4  C    0.000121   0.000157  -0.000006  -0.002216   0.000115   0.000602
     5  C    0.000112  -0.001268   0.000082  -0.000145  -0.000029  -0.000017
     6  C   -0.000002   0.000057  -0.000001   0.000009  -0.000005   0.000000
     7  H    0.000000   0.000000   0.000000   0.000010   0.000007   0.000000
     8  H    0.000000   0.000000   0.000000  -0.006107   0.003271   0.000130
     9  H   -0.000090   0.012842   0.000168  -0.000005  -0.000001   0.000000
    10  H    0.000000  -0.000008   0.000000   0.000000   0.000000   0.000000
    11  C    0.000000   0.000000   0.000000   0.000000   0.000000   0.000000
    12  N    0.000000   0.000000   0.000000   0.000000   0.000000   0.000000
    13  N    0.002319  -0.001216   0.003010  -0.054715  -0.002456   0.002728
    14  C    0.000161  -0.000053  -0.000130   0.277886  -0.042470  -0.041074
    15  H    0.000025  -0.000001   0.000008  -0.061649  -0.004210   0.004547
    16  C   -0.042543  -0.040706  -0.037631   0.004331  -0.000028   0.000039
    17  H    0.004026  -0.002276   0.001895  -0.000134  -0.000004   0.000007
    18  C    0.361870   0.359614   0.339756  -0.000090   0.000005  -0.000040
    19  H    0.521117  -0.025393  -0.023457  -0.000094  -0.000001   0.000091
    20  H   -0.025393   0.514162  -0.026557   0.000003   0.000000   0.000001
    21  H   -0.023457  -0.026557   0.557588  -0.000001   0.000000   0.000001
    22  C   -0.000094   0.000003  -0.000001   5.384561   0.367161   0.359300
    23  H   -0.000001   0.000000   0.000000   0.367161   0.516539  -0.025561
    24  H    0.000091   0.000001   0.000001   0.359300  -0.025561   0.514819
    25  H    0.000002   0.000000   0.000000   0.350872  -0.028020  -0.022757
    26  C    0.001707  -0.000177   0.000212  -0.056076   0.003741  -0.003879
    27  H   -0.000013   0.000001   0.000002   0.000286  -0.000073   0.000011
    28  H    0.001753  -0.000044   0.000053  -0.004472   0.000019   0.005100
    29  C   -0.003310   0.003738  -0.000994   0.004972  -0.000138  -0.000058
    30  H    0.000604   0.000114   0.001649  -0.000068   0.000001  -0.000002
    31  H    0.000028  -0.000086   0.000006  -0.000057   0.000003   0.000002
             25         26         27         28         29         30
     1  C    0.000000   0.000000   0.000000   0.000000   0.000000   0.000000
     2  C   -0.000002  -0.000004   0.000000   0.000000   0.000002   0.000000
     3  C    0.000079   0.000211   0.000011  -0.000013  -0.000170   0.000001
     4  C    0.000027   0.004895  -0.000087  -0.000104   0.004688  -0.000059
     5  C    0.000000  -0.000100   0.000001   0.000003   0.000067  -0.000001
     6  C    0.000000   0.000001   0.000000   0.000000   0.000000   0.000000
     7  H    0.000000   0.000000   0.000000   0.000000   0.000000   0.000000
     8  H    0.000539   0.000115   0.000003   0.000003  -0.000032   0.000000
     9  H    0.000000  -0.000007   0.000000   0.000000   0.000058   0.000000
    10  H    0.000000   0.000000   0.000000   0.000000   0.000000   0.000000
    11  C    0.000000   0.000000   0.000000   0.000000   0.000000   0.000000
    12  N    0.000000   0.000000   0.000000   0.000000   0.000000   0.000000
    13  N    0.002748  -0.068119   0.002618   0.001099  -0.052215   0.002306
    14  C   -0.038730   0.271465  -0.037263  -0.046472  -0.091518   0.004301
    15  H    0.001653  -0.045379  -0.001154   0.004203  -0.001809  -0.000114
    16  C   -0.000086  -0.091570   0.004039   0.000506   0.274043  -0.039005
    17  H    0.000003   0.004708  -0.000038   0.000011  -0.036142   0.001344
    18  C   -0.000001   0.000673  -0.000100   0.000911  -0.072098  -0.002437
    19  H    0.000002   0.001707  -0.000013   0.001753  -0.003310   0.000604
    20  H    0.000000  -0.000177   0.000001  -0.000044   0.003738   0.000114
    21  H    0.000000   0.000212   0.000002   0.000053  -0.000994   0.001649
    22  C    0.350872  -0.056076   0.000286  -0.004472   0.004972  -0.000068
    23  H   -0.028020   0.003741  -0.000073   0.000019  -0.000138   0.000001
    24  H   -0.022757  -0.003879   0.000011   0.005100  -0.000058  -0.000002
    25  H    0.544958  -0.002598   0.001491   0.000076  -0.000027   0.000000
    26  C   -0.002598   5.416492   0.375549   0.370760   0.266021  -0.031834
    27  H    0.001491   0.375549   0.518757  -0.026017  -0.032808   0.000316
    28  H    0.000076   0.370760  -0.026017   0.527569  -0.043471  -0.003916
    29  C   -0.000027   0.266021  -0.032808  -0.043471   5.422808   0.380081
    30  H    0.000000  -0.031834   0.000316  -0.003916   0.380081   0.511191
    31  H   -0.000002  -0.043115  -0.004044   0.003667   0.370309  -0.027503
             31
     1  C    0.000000
     2  C    0.000000
     3  C   -0.000003
     4  C   -0.000150
     5  C    0.000009
     6  C    0.000000
     7  H    0.000000
     8  H   -0.000002
     9  H   -0.000001
    10  H    0.000000
    11  C    0.000000
    12  N    0.000000
    13  N    0.001238
    14  C    0.000814
    15  H    0.002012
    16  C   -0.039342
    17  H   -0.004392
    18  C    0.003528
    19  H    0.000028
    20  H   -0.000086
    21  H    0.000006
    22  C   -0.000057
    23  H    0.000003
    24  H    0.000002
    25  H   -0.000002
    26  C   -0.043115
    27  H   -0.004044
    28  H    0.003667
    29  C    0.370309
    30  H   -0.027503
    31  H    0.532013
 Mulliken atomic charges:
              1
     1  C   -0.007536
     2  C   -0.164021
     3  C   -0.205248
     4  C    0.314704
     5  C   -0.192115
     6  C   -0.162044
     7  H    0.201985
     8  H    0.199473
     9  H    0.204832
    10  H    0.203101
    11  C    0.280660
    12  N   -0.482947
    13  N   -0.641686
    14  C   -0.045178
    15  H    0.192935
    16  C   -0.058115
    17  H    0.205012
    18  C   -0.540271
    19  H    0.200962
    20  H    0.207093
    21  H    0.184343
    22  C   -0.550929
    23  H    0.209585
    24  H    0.205932
    25  H    0.189775
    26  C   -0.373691
    27  H    0.198510
    28  H    0.208777
    29  C   -0.391996
    30  H    0.203031
    31  H    0.205069
 Sum of Mulliken atomic charges =   0.00000
 Mulliken charges with hydrogens summed into heavy atoms:
              1
     1  C   -0.007536
     2  C    0.037964
     3  C   -0.005775
     4  C    0.314704
     5  C    0.012716
     6  C    0.041057
    11  C    0.280660
    12  N   -0.482947
    13  N   -0.641686
    14  C    0.147757
    16  C    0.146897
    18  C    0.052127
    22  C    0.054363
    26  C    0.033595
    29  C    0.016104
 Sum of Mulliken charges with hydrogens summed into heavy atoms =   0.00000
 Electronic spatial extent (au):  <R**2>=           3846.9636
 Charge=              0.0000 electrons
 Dipole moment (field-independent basis, Debye):
    X=              6.6284    Y=              0.0722    Z=             -0.4914  Tot=              6.6470
 Quadrupole moment (field-independent basis, Debye-Ang):
   XX=           -117.2515   YY=            -81.8339   ZZ=            -92.1351
   XY=              0.3395   XZ=             -2.4801   YZ=             -1.6189
 Traceless Quadrupole moment (field-independent basis, Debye-Ang):
   XX=            -20.1780   YY=             15.2396   ZZ=              4.9384
   XY=              0.3395   XZ=             -2.4801   YZ=             -1.6189
 Octapole moment (field-independent basis, Debye-Ang**2):
  XXX=            245.6102  YYY=              0.2269  ZZZ=             -0.8536  XYY=             -2.3236
  XXY=             -0.1059  XXZ=              4.8902  XZZ=              9.1025  YZZ=              0.2073
  YYZ=             -0.5240  XYZ=              3.9078
 Hexadecapole moment (field-independent basis, Debye-Ang**3):
 XXXX=          -5363.0893 YYYY=           -933.5059 ZZZZ=           -262.8463 XXXY=             -1.2566
 XXXZ=            -54.8005 YYYX=              4.5118 YYYZ=            -10.6824 ZZZX=              0.1889
 ZZZY=              1.7125 XXYY=           -781.7920 XXZZ=           -716.1779 YYZZ=           -209.3981
 XXYZ=            -11.1278 YYXZ=             -4.4931 ZZXY=              0.9647
 N-N= 9.533334328356D+02 E-N=-3.322403142852D+03  KE= 6.066760294795D+02
 1|1|UNPC-DESKTOP-K2VF0AK|SP|RTD-B3LYP-FC|3-21G|C13H16N2|MELIH|25-Dec-2
 024|0||# td b3lyp/3-21g geom=connectivity||Title Card Required||0,1|C,
 0,2.943724,0.022759,-0.063209|C,0,2.205399,-1.033526,-0.578719|C,0,0.8
 26429,-1.009626,-0.506386|C,0,0.162985,0.058706,0.077899|C,0,0.911643,
 1.112156,0.591706|C,0,2.288879,1.099299,0.523567|H,0,2.710617,-1.86237
 1,-1.031504|H,0,0.243971,-1.814613,-0.902294|H,0,0.411527,1.943401,1.0
 46514|H,0,2.860169,1.913649,0.92094|C,0,4.370175,0.004989,-0.135148|N,
 0,5.509243,-0.008904,-0.192469|N,0,-1.259304,0.047543,0.141237|C,0,-1.
 98357883,-1.10539859,-0.44379405|H,0,-1.67616614,-1.28179549,-1.473583
 65|C,0,-1.97592091,1.3315356,-0.11179498|H,0,-1.39025923,1.96750164,-0
 .76614346|C,0,-2.22669441,2.05236608,1.21464993|H,0,-2.83348487,1.4288
 4842,1.85972798|H,0,-1.28833371,2.25339371,1.71848575|H,0,-2.73650135,
 2.99578377,1.04958141|C,0,-1.76571018,-2.37132377,0.3839977|H,0,-0.723
 7853,-2.66863926,0.37299471|H,0,-2.06002297,-2.18239455,1.40884926|H,0
 ,-2.35697188,-3.18987864,-0.01231276|C,0,-3.43256369,-0.59586981,-0.42
 394345|H,0,-4.07079477,-1.14796738,-1.10112996|H,0,-3.82389643,-0.6827
 6344,0.58234462|C,0,-3.28591869,0.88841881,-0.81355148|H,0,-4.13126599
 ,1.48929575,-0.50657117|H,0,-3.17720492,0.97035168,-1.88904129||Versio
 n=IA32W-G09RevA.02|State=1-A|HF=-611.149877|RMSD=5.384e-009|PG=C01 [X(
 C13H16N2)]||@


 MODELS ARE TO BE USED, NOT BELIEVED.

    -- PARAPHRASED BY H. THIEL IN "PRINCIPLES OF ECONOMETRICS"
 Job cpu time:  0 days  0 hours  6 minutes 17.0 seconds.
 File lengths (MBytes):  RWF=     64 Int=      0 D2E=      0 Chk=      5 Scr=      1
 Normal termination of Gaussian 09 at Wed Dec 25 20:33:19 2024.
