 Entering Link 1 = C:\G09W\l1.exe PID=     12912.
  
 Copyright (c) 1988,1990,1992,1993,1995,1998,2003,2009, Gaussian, Inc.
                  All Rights Reserved.
  
 This is part of the Gaussian(R) 09 program.  It is based on
 the Gaussian(R) 03 system (copyright 2003, Gaussian, Inc.),
 the Gaussian(R) 98 system (copyright 1998, Gaussian, Inc.),
 the Gaussian(R) 94 system (copyright 1995, Gaussian, Inc.),
 the Gaussian 92(TM) system (copyright 1992, Gaussian, Inc.),
 the Gaussian 90(TM) system (copyright 1990, Gaussian, Inc.),
 the Gaussian 88(TM) system (copyright 1988, Gaussian, Inc.),
 the Gaussian 86(TM) system (copyright 1986, Carnegie Mellon
 University), and the Gaussian 82(TM) system (copyright 1983,
 Carnegie Mellon University). Gaussian is a federally registered
 trademark of Gaussian, Inc.
  
 This software contains proprietary and confidential information,
 including trade secrets, belonging to Gaussian, Inc.
  
 This software is provided under written license and may be
 used, copied, transmitted, or stored only in accord with that
 written license.
  
 The following legend is applicable only to US Government
 contracts under FAR:
  
                    RESTRICTED RIGHTS LEGEND
  
 Use, reproduction and disclosure by the US Government is
 subject to restrictions as set forth in subparagraphs (a)
 and (c) of the Commercial Computer Software - Restricted
 Rights clause in FAR 52.227-19.
  
 Gaussian, Inc.
 340 Quinnipiac St., Bldg. 40, Wallingford CT 06492
  
  
 ---------------------------------------------------------------
 Warning -- This program may not be used in any manner that
 competes with the business of Gaussian, Inc. or will provide
 assistance to any competitor of Gaussian, Inc.  The licensee
 of this program is prohibited from giving any competitor of
 Gaussian, Inc. access to this program.  By using this program,
 the user acknowledges that Gaussian, Inc. is engaged in the
 business of creating and licensing software in the field of
 computational chemistry and represents and warrants to the
 licensee that it is not a competitor of Gaussian, Inc. and that
 it will not use this program in any manner prohibited above.
 ---------------------------------------------------------------
  

 Cite this work as:
 Gaussian 09, Revision A.02,
 M. J. Frisch, G. W. Trucks, H. B. Schlegel, G. E. Scuseria, 
 M. A. Robb, J. R. Cheeseman, G. Scalmani, V. Barone, B. Mennucci, 
 G. A. Petersson, H. Nakatsuji, M. Caricato, X. Li, H. P. Hratchian, 
 A. F. Izmaylov, J. Bloino, G. Zheng, J. L. Sonnenberg, M. Hada, 
 M. Ehara, K. Toyota, R. Fukuda, J. Hasegawa, M. Ishida, T. Nakajima, 
 Y. Honda, O. Kitao, H. Nakai, T. Vreven, J. A. Montgomery, Jr., 
 J. E. Peralta, F. Ogliaro, M. Bearpark, J. J. Heyd, E. Brothers, 
 K. N. Kudin, V. N. Staroverov, R. Kobayashi, J. Normand, 
 K. Raghavachari, A. Rendell, J. C. Burant, S. S. Iyengar, J. Tomasi, 
 M. Cossi, N. Rega, J. M. Millam, M. Klene, J. E. Knox, J. B. Cross, 
 V. Bakken, C. Adamo, J. Jaramillo, R. Gomperts, R. E. Stratmann, 
 O. Yazyev, A. J. Austin, R. Cammi, C. Pomelli, J. W. Ochterski, 
 R. L. Martin, K. Morokuma, V. G. Zakrzewski, G. A. Voth, 
 P. Salvador, J. J. Dannenberg, S. Dapprich, A. D. Daniels, 
 O. Farkas, J. B. Foresman, J. V. Ortiz, J. Cioslowski, 
 and D. J. Fox, Gaussian, Inc., Wallingford CT, 2009.
 
 ******************************************
 Gaussian 09:  IA32W-G09RevA.02 11-Jun-2009
                17-Dec-2024 
 ******************************************
 %chk=C:\G09W\Hw5\opt1.chk
 --------------------------------
 # opt hf/3-21g geom=connectivity
 --------------------------------
 1/18=20,19=15,38=1,57=2/1,3;
 2/9=110,12=2,17=6,18=5,40=1/2;
 3/5=5,11=9,16=1,25=1,30=1,71=1/1,2,3;
 4//1;
 5/5=2,38=5/2;
 6/7=2,8=2,9=2,10=2,28=1/1;
 7//1,2,3,16;
 1/18=20,19=15/3(2);
 2/9=110/2;
 99//99;
 2/9=110/2;
 3/5=5,11=9,16=1,25=1,30=1,71=1/1,2,3;
 4/5=5,16=3/1;
 5/5=2,38=5/2;
 7//1,2,3,16;
 1/18=20,19=15/3(-5);
 2/9=110/2;
 6/7=2,8=2,9=2,10=2,19=2,28=1/1;
 99/9=1/99;
 -------------------
 Title Card Required
 -------------------
 Symbolic Z-matrix:
 Charge =  0 Multiplicity = 1
 C                    -1.94604  -1.0735   -1.36467 
 C                    -0.63902  -1.52723  -1.14243 
 C                     0.29284  -0.7054   -0.51462 
 C                    -0.08642   0.5641   -0.09424 
 C                    -1.4317    0.94947  -0.17323 
 C                    -2.36074   0.13592  -0.82483 
 H                    -0.35427  -2.49665  -1.46343 
 H                     1.29151  -1.04032  -0.37001 
 H                    -1.74657   1.86688   0.25577 
 H                    -3.37803   0.44086  -0.91586 
 C                    -2.90639  -1.91639  -2.23261 
 N                    -3.62247  -2.54727  -2.88067 
 N                     0.92317   1.5169    0.40189 
 C                     0.4198    2.54333   1.29658 
 H                    -0.41336   3.05152   0.85555 
 C                     1.41521   2.28512  -0.67741 
 H                     0.60229   2.61321  -1.29118 
 C                     2.40605   1.481    -1.5397 
 H                     3.23726   1.16666  -0.93236 
 H                     1.91073   0.61645  -1.94345 
 H                     2.76284   2.0992   -2.34057 
 C                    -0.03012   1.90314   2.62895 
 H                    -0.82206   1.20273   2.44481 
 H                     0.80357   1.39737   3.07786 
 H                    -0.38196   2.6648    3.28878 
 C                     1.60541   3.56926   1.52337 
 H                     1.4106    3.35953   2.54662 
 H                     2.66153   3.58417   1.75138 
 C                     2.04878   3.49962  -0.01556 
 H                     2.97556   3.08014   0.3175 
 H                     2.6093    4.07299  -0.7373 
 

 GradGradGradGradGradGradGradGradGradGradGradGradGradGradGradGradGradGrad
 Berny optimization.
 Initialization pass.
                           ----------------------------
                           !    Initial Parameters    !
                           ! (Angstroms and Degrees)  !
 --------------------------                            --------------------------
 ! Name  Definition              Value          Derivative Info.                !
 --------------------------------------------------------------------------------
 ! R1    R(1,2)                  1.4013         estimate D2E/DX2                !
 ! R2    R(1,6)                  1.3878         estimate D2E/DX2                !
 ! R3    R(1,11)                 1.5447         estimate D2E/DX2                !
 ! R4    R(2,3)                  1.3921         estimate D2E/DX2                !
 ! R5    R(2,7)                  1.0601         estimate D2E/DX2                !
 ! R6    R(3,4)                  1.39           estimate D2E/DX2                !
 ! R7    R(3,8)                  1.0632         estimate D2E/DX2                !
 ! R8    R(4,5)                  1.4016         estimate D2E/DX2                !
 ! R9    R(4,13)                 1.4742         estimate D2E/DX2                !
 ! R10   R(5,6)                  1.3963         estimate D2E/DX2                !
 ! R11   R(5,9)                  1.0606         estimate D2E/DX2                !
 ! R12   R(6,10)                 1.0659         estimate D2E/DX2                !
 ! R13   R(11,12)                1.1536         estimate D2E/DX2                !
 ! R14   R(13,14)                1.4517         estimate D2E/DX2                !
 ! R15   R(13,16)                1.4132         estimate D2E/DX2                !
 ! R16   R(14,15)                1.0709         estimate D2E/DX2                !
 ! R17   R(14,22)                1.5451         estimate D2E/DX2                !
 ! R18   R(14,26)                1.5842         estimate D2E/DX2                !
 ! R19   R(16,17)                1.0701         estimate D2E/DX2                !
 ! R20   R(16,18)                1.5401         estimate D2E/DX2                !
 ! R21   R(16,29)                1.5213         estimate D2E/DX2                !
 ! R22   R(18,19)                1.0764         estimate D2E/DX2                !
 ! R23   R(18,20)                1.0751         estimate D2E/DX2                !
 ! R24   R(18,21)                1.0728         estimate D2E/DX2                !
 ! R25   R(22,23)                1.0731         estimate D2E/DX2                !
 ! R26   R(22,24)                1.0735         estimate D2E/DX2                !
 ! R27   R(22,25)                1.0674         estimate D2E/DX2                !
 ! R28   R(26,27)                1.0625         estimate D2E/DX2                !
 ! R29   R(26,28)                1.0806         estimate D2E/DX2                !
 ! R30   R(26,29)                1.603          estimate D2E/DX2                !
 ! R31   R(29,30)                1.0704         estimate D2E/DX2                !
 ! R32   R(29,31)                1.0788         estimate D2E/DX2                !
 ! A1    A(2,1,6)              119.9466         estimate D2E/DX2                !
 ! A2    A(2,1,11)             119.4932         estimate D2E/DX2                !
 ! A3    A(6,1,11)             120.5512         estimate D2E/DX2                !
 ! A4    A(1,2,3)              120.3139         estimate D2E/DX2                !
 ! A5    A(1,2,7)              119.9073         estimate D2E/DX2                !
 ! A6    A(3,2,7)              119.7752         estimate D2E/DX2                !
 ! A7    A(2,3,4)              119.5329         estimate D2E/DX2                !
 ! A8    A(2,3,8)              120.2737         estimate D2E/DX2                !
 ! A9    A(4,3,8)              120.1875         estimate D2E/DX2                !
 ! A10   A(3,4,5)              119.7312         estimate D2E/DX2                !
 ! A11   A(3,4,13)             120.3452         estimate D2E/DX2                !
 ! A12   A(5,4,13)             119.906          estimate D2E/DX2                !
 ! A13   A(4,5,6)              120.3134         estimate D2E/DX2                !
 ! A14   A(4,5,9)              119.9991         estimate D2E/DX2                !
 ! A15   A(6,5,9)              119.6853         estimate D2E/DX2                !
 ! A16   A(1,6,5)              119.3708         estimate D2E/DX2                !
 ! A17   A(1,6,10)             120.0843         estimate D2E/DX2                !
 ! A18   A(5,6,10)             120.543          estimate D2E/DX2                !
 ! A19   A(4,13,14)            115.2733         estimate D2E/DX2                !
 ! A20   A(4,13,16)            109.4362         estimate D2E/DX2                !
 ! A21   A(14,13,16)           101.9503         estimate D2E/DX2                !
 ! A22   A(13,14,15)           110.5771         estimate D2E/DX2                !
 ! A23   A(13,14,22)           109.8437         estimate D2E/DX2                !
 ! A24   A(13,14,26)           106.656          estimate D2E/DX2                !
 ! A25   A(15,14,22)           108.9768         estimate D2E/DX2                !
 ! A26   A(15,14,26)           109.504          estimate D2E/DX2                !
 ! A27   A(22,14,26)           111.2721         estimate D2E/DX2                !
 ! A28   A(13,16,17)           109.8889         estimate D2E/DX2                !
 ! A29   A(13,16,18)           111.5785         estimate D2E/DX2                !
 ! A30   A(13,16,29)           104.2825         estimate D2E/DX2                !
 ! A31   A(17,16,18)           109.1278         estimate D2E/DX2                !
 ! A32   A(17,16,29)           108.7314         estimate D2E/DX2                !
 ! A33   A(18,16,29)           113.1078         estimate D2E/DX2                !
 ! A34   A(16,18,19)           109.4744         estimate D2E/DX2                !
 ! A35   A(16,18,20)           109.4948         estimate D2E/DX2                !
 ! A36   A(16,18,21)           109.3336         estimate D2E/DX2                !
 ! A37   A(19,18,20)           109.4418         estimate D2E/DX2                !
 ! A38   A(19,18,21)           109.4323         estimate D2E/DX2                !
 ! A39   A(20,18,21)           109.6504         estimate D2E/DX2                !
 ! A40   A(14,22,23)           109.7152         estimate D2E/DX2                !
 ! A41   A(14,22,24)           109.2485         estimate D2E/DX2                !
 ! A42   A(14,22,25)           109.474          estimate D2E/DX2                !
 ! A43   A(23,22,24)           109.7169         estimate D2E/DX2                !
 ! A44   A(23,22,25)           109.18           estimate D2E/DX2                !
 ! A45   A(24,22,25)           109.4929         estimate D2E/DX2                !
 ! A46   A(14,26,27)            82.6937         estimate D2E/DX2                !
 ! A47   A(14,26,28)           140.4096         estimate D2E/DX2                !
 ! A48   A(14,26,29)            92.3742         estimate D2E/DX2                !
 ! A49   A(27,26,28)            88.7798         estimate D2E/DX2                !
 ! A50   A(27,26,29)           165.1608         estimate D2E/DX2                !
 ! A51   A(28,26,29)            86.1494         estimate D2E/DX2                !
 ! A52   A(16,29,26)           109.703          estimate D2E/DX2                !
 ! A53   A(16,29,30)           100.55           estimate D2E/DX2                !
 ! A54   A(16,29,31)           110.4635         estimate D2E/DX2                !
 ! A55   A(26,29,30)            87.5806         estimate D2E/DX2                !
 ! A56   A(26,29,31)           139.718          estimate D2E/DX2                !
 ! A57   A(30,29,31)            88.086          estimate D2E/DX2                !
 ! A58   L(1,11,12,2,-1)       179.9133         estimate D2E/DX2                !
 ! A59   L(1,11,12,2,-2)       179.9546         estimate D2E/DX2                !
 ! D1    D(6,1,2,3)             -7.3787         estimate D2E/DX2                !
 ! D2    D(6,1,2,7)            173.3229         estimate D2E/DX2                !
 ! D3    D(11,1,2,3)           171.537          estimate D2E/DX2                !
 ! D4    D(11,1,2,7)            -7.7614         estimate D2E/DX2                !
 ! D5    D(2,1,6,5)              6.128          estimate D2E/DX2                !
 ! D6    D(2,1,6,10)          -174.3656         estimate D2E/DX2                !
 ! D7    D(11,1,6,5)          -172.7761         estimate D2E/DX2                !
 ! D8    D(11,1,6,10)            6.7303         estimate D2E/DX2                !
 ! D9    D(1,2,3,4)              0.7824         estimate D2E/DX2                !
 ! D10   D(1,2,3,8)           -178.3342         estimate D2E/DX2                !
 ! D11   D(7,2,3,4)           -179.9182         estimate D2E/DX2                !
 ! D12   D(7,2,3,8)              0.9651         estimate D2E/DX2                !
 ! D13   D(2,3,4,5)              6.9132         estimate D2E/DX2                !
 ! D14   D(2,3,4,13)          -171.5594         estimate D2E/DX2                !
 ! D15   D(8,3,4,5)           -173.9693         estimate D2E/DX2                !
 ! D16   D(8,3,4,13)             7.5581         estimate D2E/DX2                !
 ! D17   D(3,4,5,6)             -8.161          estimate D2E/DX2                !
 ! D18   D(3,4,5,9)            172.3732         estimate D2E/DX2                !
 ! D19   D(13,4,5,6)           170.3184         estimate D2E/DX2                !
 ! D20   D(13,4,5,9)            -9.1474         estimate D2E/DX2                !
 ! D21   D(3,4,13,14)         -155.6637         estimate D2E/DX2                !
 ! D22   D(3,4,13,16)           90.1681         estimate D2E/DX2                !
 ! D23   D(5,4,13,14)           25.8663         estimate D2E/DX2                !
 ! D24   D(5,4,13,16)          -88.3019         estimate D2E/DX2                !
 ! D25   D(4,5,6,1)              1.5853         estimate D2E/DX2                !
 ! D26   D(4,5,6,10)          -177.9188         estimate D2E/DX2                !
 ! D27   D(9,5,6,1)           -178.9472         estimate D2E/DX2                !
 ! D28   D(9,5,6,10)             1.5487         estimate D2E/DX2                !
 ! D29   D(4,13,14,15)         -52.5545         estimate D2E/DX2                !
 ! D30   D(4,13,14,22)          67.7606         estimate D2E/DX2                !
 ! D31   D(4,13,14,26)        -171.5382         estimate D2E/DX2                !
 ! D32   D(16,13,14,15)         65.8737         estimate D2E/DX2                !
 ! D33   D(16,13,14,22)       -173.8112         estimate D2E/DX2                !
 ! D34   D(16,13,14,26)        -53.11           estimate D2E/DX2                !
 ! D35   D(4,13,16,17)          44.8836         estimate D2E/DX2                !
 ! D36   D(4,13,16,18)         -76.3014         estimate D2E/DX2                !
 ! D37   D(4,13,16,29)         161.2744         estimate D2E/DX2                !
 ! D38   D(14,13,16,17)        -77.6267         estimate D2E/DX2                !
 ! D39   D(14,13,16,18)        161.1884         estimate D2E/DX2                !
 ! D40   D(14,13,16,29)         38.7642         estimate D2E/DX2                !
 ! D41   D(13,14,22,23)        -61.2548         estimate D2E/DX2                !
 ! D42   D(13,14,22,24)         59.0588         estimate D2E/DX2                !
 ! D43   D(13,14,22,25)        178.951          estimate D2E/DX2                !
 ! D44   D(15,14,22,23)         60.0257         estimate D2E/DX2                !
 ! D45   D(15,14,22,24)       -179.6607         estimate D2E/DX2                !
 ! D46   D(15,14,22,25)        -59.7685         estimate D2E/DX2                !
 ! D47   D(26,14,22,23)       -179.1268         estimate D2E/DX2                !
 ! D48   D(26,14,22,24)        -58.8132         estimate D2E/DX2                !
 ! D49   D(26,14,22,25)         61.0789         estimate D2E/DX2                !
 ! D50   D(13,14,26,27)       -125.6605         estimate D2E/DX2                !
 ! D51   D(13,14,26,28)        -46.539          estimate D2E/DX2                !
 ! D52   D(13,14,26,29)         40.2892         estimate D2E/DX2                !
 ! D53   D(15,14,26,27)        114.6591         estimate D2E/DX2                !
 ! D54   D(15,14,26,28)       -166.2193         estimate D2E/DX2                !
 ! D55   D(15,14,26,29)        -79.3912         estimate D2E/DX2                !
 ! D56   D(22,14,26,27)         -5.8783         estimate D2E/DX2                !
 ! D57   D(22,14,26,28)         73.2432         estimate D2E/DX2                !
 ! D58   D(22,14,26,29)        160.0713         estimate D2E/DX2                !
 ! D59   D(13,16,18,19)        -59.6171         estimate D2E/DX2                !
 ! D60   D(13,16,18,20)         60.3633         estimate D2E/DX2                !
 ! D61   D(13,16,18,21)       -179.4872         estimate D2E/DX2                !
 ! D62   D(17,16,18,19)        178.7563         estimate D2E/DX2                !
 ! D63   D(17,16,18,20)        -61.2634         estimate D2E/DX2                !
 ! D64   D(17,16,18,21)         58.8861         estimate D2E/DX2                !
 ! D65   D(29,16,18,19)         57.5892         estimate D2E/DX2                !
 ! D66   D(29,16,18,20)        177.5695         estimate D2E/DX2                !
 ! D67   D(29,16,18,21)        -62.281          estimate D2E/DX2                !
 ! D68   D(13,16,29,26)        -12.9808         estimate D2E/DX2                !
 ! D69   D(13,16,29,30)         78.2274         estimate D2E/DX2                !
 ! D70   D(13,16,29,31)        170.132          estimate D2E/DX2                !
 ! D71   D(17,16,29,26)        104.2132         estimate D2E/DX2                !
 ! D72   D(17,16,29,30)       -164.5786         estimate D2E/DX2                !
 ! D73   D(17,16,29,31)        -72.674          estimate D2E/DX2                !
 ! D74   D(18,16,29,26)       -134.3959         estimate D2E/DX2                !
 ! D75   D(18,16,29,30)        -43.1877         estimate D2E/DX2                !
 ! D76   D(18,16,29,31)         48.7168         estimate D2E/DX2                !
 ! D77   D(14,26,29,16)        -15.8414         estimate D2E/DX2                !
 ! D78   D(14,26,29,30)       -116.1834         estimate D2E/DX2                !
 ! D79   D(14,26,29,31)        159.6456         estimate D2E/DX2                !
 ! D80   D(27,26,29,16)         54.2512         estimate D2E/DX2                !
 ! D81   D(27,26,29,30)        -46.0907         estimate D2E/DX2                !
 ! D82   D(27,26,29,31)       -130.2618         estimate D2E/DX2                !
 ! D83   D(28,26,29,16)        124.5337         estimate D2E/DX2                !
 ! D84   D(28,26,29,30)         24.1917         estimate D2E/DX2                !
 ! D85   D(28,26,29,31)        -59.9793         estimate D2E/DX2                !
 --------------------------------------------------------------------------------
 Trust Radius=3.00D-01 FncErr=1.00D-07 GrdErr=1.00D-07
 Number of steps in this run= 186 maximum allowed number of steps= 186.
 GradGradGradGradGradGradGradGradGradGradGradGradGradGradGradGradGradGrad

                          Input orientation:                          
 ---------------------------------------------------------------------
 Center     Atomic      Atomic             Coordinates (Angstroms)
 Number     Number       Type             X           Y           Z
 ---------------------------------------------------------------------
      1          6           0       -1.946037   -1.073497   -1.364674
      2          6           0       -0.639016   -1.527232   -1.142430
      3          6           0        0.292835   -0.705404   -0.514622
      4          6           0       -0.086419    0.564101   -0.094239
      5          6           0       -1.431699    0.949466   -0.173226
      6          6           0       -2.360738    0.135915   -0.824833
      7          1           0       -0.354268   -2.496650   -1.463430
      8          1           0        1.291505   -1.040321   -0.370011
      9          1           0       -1.746569    1.866879    0.255775
     10          1           0       -3.378028    0.440857   -0.915856
     11          6           0       -2.906392   -1.916394   -2.232613
     12          7           0       -3.622469   -2.547275   -2.880671
     13          7           0        0.923168    1.516904    0.401891
     14          6           0        0.419804    2.543327    1.296580
     15          1           0       -0.413357    3.051525    0.855546
     16          6           0        1.415211    2.285124   -0.677413
     17          1           0        0.602292    2.613205   -1.291181
     18          6           0        2.406054    1.480998   -1.539701
     19          1           0        3.237259    1.166657   -0.932362
     20          1           0        1.910727    0.616454   -1.943446
     21          1           0        2.762840    2.099198   -2.340571
     22          6           0       -0.030116    1.903136    2.628945
     23          1           0       -0.822062    1.202733    2.444814
     24          1           0        0.803571    1.397370    3.077856
     25          1           0       -0.381959    2.664800    3.288778
     26          6           0        1.605407    3.569263    1.523371
     27          1           0        1.410602    3.359534    2.546622
     28          1           0        2.661532    3.584171    1.751384
     29          6           0        2.048783    3.499619   -0.015561
     30          1           0        2.975563    3.080139    0.317504
     31          1           0        2.609296    4.072988   -0.737300
 ---------------------------------------------------------------------
                    Distance matrix (angstroms):
                    1          2          3          4          5
     1  C    0.000000
     2  C    1.401275   0.000000
     3  C    2.422939   1.392082   0.000000
     4  C    2.784585   2.403693   1.390035   0.000000
     5  C    2.403430   2.775200   2.414366   1.401614   0.000000
     6  C    1.387834   2.414799   2.800982   2.426858   1.396271
     7  H    2.137486   1.060139   2.127802   3.363722   3.834214
     8  H    3.387054   2.135562   1.063214   2.132814   3.378434
     9  H    3.363250   3.834272   3.371842   2.139121   1.060581
    10  H    2.131972   3.380370   3.866541   3.394839   2.144383
    11  C    1.544692   2.545769   3.827929   4.321776   3.824781
    12  N    2.698276   3.600412   4.931560   5.472524   4.935274
    13  N    4.250090   3.753946   2.485149   1.474193   2.489607
    14  C    5.075520   4.862029   3.721670   2.471432   2.851102
    15  H    4.928924   5.000784   4.060859   2.682584   2.552262
    16  C    4.801110   4.355474   3.198357   2.357309   3.184821
    17  H    4.482316   4.325066   3.422276   2.470996   2.855691
    18  C    5.049433   4.298805   3.208868   3.023654   4.108300
    19  H    5.663192   4.725112   3.514079   3.480281   4.735254
    20  H    4.250357   3.426106   2.531090   2.722296   3.796891
    21  H    5.761240   5.114603   4.159423   3.939645   4.859365
    22  C    5.336675   5.134340   4.097657   3.035114   3.275070
    23  H    4.577854   4.511599   3.693541   2.719524   2.699987
    24  H    5.779412   5.333401   4.193854   3.398324   3.970715
    25  H    6.170561   6.105310   5.126351   3.993130   4.003722
    26  C    6.519876   6.173993   4.914167   3.809191   4.354972
    27  H    6.798311   6.456820   5.210023   4.126702   4.613532
    28  H    7.254887   6.737523   5.398700   4.480891   5.234532
    29  C    6.220296   5.810622   4.584172   3.630777   4.317626
    30  H    6.656167   6.035268   4.713788   3.984434   4.919811
    31  H    6.901519   6.486765   5.314941   4.471319   5.138502
                    6          7          8          9         10
     6  C    0.000000
     7  H    3.371073   0.000000
     8  H    3.863842   2.454593   0.000000
     9  H    2.130998   4.892295   4.251272   0.000000
    10  H    1.065905   4.251107   4.929136   2.463313   0.000000
    11  C    2.547853   2.727944   4.675375   4.674442   2.740971
    12  N    3.608039   3.562622   5.720268   5.730711   3.584576
    13  N    3.767761   4.606504   2.696461   2.696541   4.625432
    14  C    4.245874   5.798122   4.047212   2.496804   4.872246
    15  H    3.888026   6.013600   4.599103   1.881639   4.329287
    16  C    4.347255   5.158900   3.341914   3.323045   5.141334
    17  H    3.890244   5.201471   3.830382   2.909850   4.550045
    18  C    5.004258   4.842198   2.994569   4.540586   5.909880
    19  H    5.693116   5.157608   2.995488   5.171124   6.655004
    20  H    4.441579   3.879695   2.367284   4.447015   5.390519
    21  H    5.692363   5.622060   3.988046   5.208623   6.518448
    22  C    4.525865   6.017535   4.405038   2.929072   5.090422
    23  H    3.767786   5.401725   4.173931   2.467326   4.290398
    24  H    5.180261   6.093214   4.250671   3.832466   5.860923
    25  H    5.218488   7.016040   5.469474   3.420226   5.621503
    26  C    5.747368   7.039645   4.993165   3.967449   6.369566
    27  H    5.998453   7.313698   5.280119   4.176569   6.590782
    28  H    6.614421   7.510424   5.269081   4.961582   7.312378
    29  C    5.604757   6.620138   4.616293   4.140551   6.294190
    30  H    6.200766   6.734989   4.504100   4.875894   6.989643
    31  H    6.341092   7.243626   5.293147   4.982638   7.005162
                   11         12         13         14         15
    11  C    0.000000
    12  N    1.153584   0.000000
    13  N    5.778726   6.924997   0.000000
    14  C    6.588467   7.726812   1.451685   0.000000
    15  H    6.358629   7.456827   2.084985   1.070949   0.000000
    16  C    6.224762   7.320154   1.413211   2.225793   2.506191
    17  H    5.806412   6.856066   2.042383   2.595128   2.414974
    18  C    6.343854   7.373485   2.443362   3.621909   4.019060
    19  H    6.995735   8.040216   2.694052   3.847266   4.480662
    20  H    5.450098   6.442346   2.699386   4.053820   4.377817
    21  H    6.948153   7.915402   3.353290   4.349246   4.605466
    22  C    6.818835   7.941475   2.453100   1.545144   2.147235
    23  H    5.995974   7.089826   2.705193   2.158209   2.472012
    24  H    7.276396   8.405599   2.681302   2.152542   3.025856
    25  H    7.605646   8.702226   3.369739   2.150914   2.463972
    26  C    8.034685   9.172694   2.436257   1.584182   2.188481
    27  H    8.325439   9.469832   2.869277   1.791781   2.506279
    28  H    8.782381   9.926693   3.019376   2.513075   3.246718
    29  C    7.668264   8.771367   2.317851   2.299952   2.649858
    30  H    8.128089   9.242843   2.581308   2.789025   3.431485
    31  H    8.278373   9.341135   3.267162   3.357142   3.566087
                   16         17         18         19         20
    16  C    0.000000
    17  H    1.070133   0.000000
    18  C    1.540107   2.144111   0.000000
    19  H    2.153097   3.027260   1.076370   0.000000
    20  H    2.152402   2.474766   1.075079   1.756332   0.000000
    21  H    2.148666   2.456296   1.072781   1.754355   1.755658
    22  C    3.628621   4.033798   4.846724   4.888870   5.131196
    23  H    3.990647   4.239796   5.135614   5.280597   5.202757
    24  H    3.906950   4.539521   4.888433   4.696585   5.200874
    25  H    4.370886   4.684809   5.699879   5.758576   6.068632
    26  C    2.555120   3.137194   3.792664   3.803430   4.564112
    27  H    3.398350   3.992380   4.606285   4.499857   5.285387
    28  H    3.023225   3.800058   3.914057   3.657639   4.798210
    29  C    1.521335   2.122562   2.554502   2.774115   3.471087
    30  H    2.014102   2.904877   2.516109   2.300448   3.509347
    31  H    2.150786   2.542796   2.720949   2.979789   3.726984
                   21         22         23         24         25
    21  H    0.000000
    22  C    5.703958   0.000000
    23  H    6.046080   1.073149   0.000000
    24  H    5.804365   1.073477   1.755365   0.000000
    25  H    6.472962   1.067383   1.744594   1.748241   0.000000
    26  C    4.293110   2.583255   3.513136   2.788635   2.807906
    27  H    5.225098   2.050254   3.105954   2.121505   2.060759
    28  H    4.354251   3.292562   4.276391   3.161273   3.531524
    29  C    2.806551   3.723438   4.423899   3.941983   4.186177
    30  H    2.841278   3.970164   4.740470   3.894715   4.502658
    31  H    2.547528   4.796495   5.489848   4.997499   5.209597
                   26         27         28         29         30
    26  C    0.000000
    27  H    1.062534   0.000000
    28  H    1.080561   1.499230   0.000000
    29  C    1.603042   2.644178   1.872085   0.000000
    30  H    1.889626   2.737906   1.551991   1.070429   0.000000
    31  H    2.524315   3.567916   2.536773   1.078812   1.494160
                   31
    31  H    0.000000
 Stoichiometry    C13H16N2
 Framework group  C1[X(C13H16N2)]
 Deg. of freedom    87
 Full point group                 C1      NOp   1
 Largest Abelian subgroup         C1      NOp   1
 Largest concise Abelian subgroup C1      NOp   1
                         Standard orientation:                         
 ---------------------------------------------------------------------
 Center     Atomic      Atomic             Coordinates (Angstroms)
 Number     Number       Type             X           Y           Z
 ---------------------------------------------------------------------
      1          6           0        2.850781   -0.130533    0.003165
      2          6           0        2.267530    0.611178    1.039146
      3          6           0        0.884076    0.637815    1.191587
      4          6           0        0.084378   -0.090217    0.318289
      5          6           0        0.678383   -0.955101   -0.611041
      6          6           0        2.064300   -0.963172   -0.780573
      7          1           0        2.881159    1.163955    1.703819
      8          1           0        0.440820    1.221875    1.961536
      9          1           0        0.073956   -1.601506   -1.195559
     10          1           0        2.517189   -1.595525   -1.509390
     11          6           0        4.364594    0.006986   -0.271660
     12          7           0        5.495331    0.110507   -0.475315
     13          7           0       -1.381064    0.068317    0.342602
     14          6           0       -2.135412   -1.063662   -0.164323
     15          1           0       -1.788699   -1.340982   -1.138908
     16          6           0       -1.757866    1.095337   -0.552059
     17          1           0       -1.230700    0.984237   -1.476687
     18          6           0       -1.465141    2.490307    0.031293
     19          1           0       -2.010136    2.616288    0.950903
     20          1           0       -0.411675    2.584835    0.223828
     21          1           0       -1.772229    3.240647   -0.671237
     22          6           0       -1.974960   -2.269743    0.788091
     23          1           0       -0.941491   -2.553888    0.841481
     24          1           0       -2.326876   -1.998301    1.765244
     25          1           0       -2.546304   -3.092604    0.419621
     26          6           0       -3.647208   -0.598692   -0.253246
     27          1           0       -3.806815   -1.464159    0.342128
     28          1           0       -4.396488   -0.085796    0.332527
     29          6           0       -3.238617    0.851199   -0.801527
     30          1           0       -3.658186    1.258523    0.095060
     31          1           0       -3.672415    1.680418   -1.338228
 ---------------------------------------------------------------------
 Rotational constants (GHZ):      1.3991383      0.3277070      0.2933004
 Standard basis: 3-21G (6D, 7F)
 There are   167 symmetry adapted basis functions of A   symmetry.
 Integral buffers will be    262144 words long.
 Raffenetti 1 integral format.
 Two-electron integral symmetry is turned on.
   167 basis functions,   273 primitive gaussians,   167 cartesian basis functions
    54 alpha electrons       54 beta electrons
       nuclear repulsion energy       955.6872650404 Hartrees.
 NAtoms=   31 NActive=   31 NUniq=   31 SFac= 7.50D-01 NAtFMM=   80 NAOKFM=F Big=F
 One-electron integrals computed using PRISM.
 NBasis=   167 RedAO= T  NBF=   167
 NBsUse=   167 1.00D-06 NBFU=   167
 Harris functional with IExCor=  205 diagonalized for initial guess.
 ExpMin= 1.83D-01 ExpMax= 2.43D+02 ExpMxC= 2.43D+02 IAcc=1 IRadAn=         1 AccDes= 0.00D+00
 HarFok:  IExCor=  205 AccDes= 0.00D+00 IRadAn=         1 IDoV= 1
 ScaDFX=  1.000000  1.000000  1.000000  1.000000
 FoFCou: FMM=F IPFlag=           0 FMFlag=      100000 FMFlg1=           0
         NFxFlg=           0 DoJE=T BraDBF=F KetDBF=T FulRan=T
         Omega=  0.000000  0.000000  1.000000  0.000000  0.000000 ICntrl=     500 IOpCl=  0
         NMat0=    1 NMatS0=    1 NMatT0=    0 NMatD0=    1 NMtDS0=    0 NMtDT0=    0
         I1Cent=           4 NGrid=           0.
 Petite list used in FoFCou.
 Initial guess orbital symmetries:
       Occupied  (A) (A) (A) (A) (A) (A) (A) (A) (A) (A) (A) (A)
                 (A) (A) (A) (A) (A) (A) (A) (A) (A) (A) (A) (A)
                 (A) (A) (A) (A) (A) (A) (A) (A) (A) (A) (A) (A)
                 (A) (A) (A) (A) (A) (A) (A) (A) (A) (A) (A) (A)
                 (A) (A) (A) (A) (A) (A)
       Virtual   (A) (A) (A) (A) (A) (A) (A) (A) (A) (A) (A) (A)
                 (A) (A) (A) (A) (A) (A) (A) (A) (A) (A) (A) (A)
                 (A) (A) (A) (A) (A) (A) (A) (A) (A) (A) (A) (A)
                 (A) (A) (A) (A) (A) (A) (A) (A) (A) (A) (A) (A)
                 (A) (A) (A) (A) (A) (A) (A) (A) (A) (A) (A) (A)
                 (A) (A) (A) (A) (A) (A) (A) (A) (A) (A) (A) (A)
                 (A) (A) (A) (A) (A) (A) (A) (A) (A) (A) (A) (A)
                 (A) (A) (A) (A) (A) (A) (A) (A) (A) (A) (A) (A)
                 (A) (A) (A) (A) (A) (A) (A) (A) (A) (A) (A) (A)
                 (A) (A) (A) (A) (A)
 The electronic state of the initial guess is 1-A.
 Requested convergence on RMS density matrix=1.00D-08 within 128 cycles.
 Requested convergence on MAX density matrix=1.00D-06.
 Requested convergence on             energy=1.00D-06.
 No special actions if energy rises.
 Integral accuracy reduced to 1.0D-05 until final iterations.
 Initial convergence to 1.0D-05 achieved.  Increase integral accuracy.
 SCF Done:  E(RHF) =  -606.779970615     A.U. after   17 cycles
             Convg  =    0.4200D-08             -V/T =  2.0010

 **********************************************************************

            Population analysis using the SCF density.

 **********************************************************************

 Orbital symmetries:
       Occupied  (A) (A) (A) (A) (A) (A) (A) (A) (A) (A) (A) (A)
                 (A) (A) (A) (A) (A) (A) (A) (A) (A) (A) (A) (A)
                 (A) (A) (A) (A) (A) (A) (A) (A) (A) (A) (A) (A)
                 (A) (A) (A) (A) (A) (A) (A) (A) (A) (A) (A) (A)
                 (A) (A) (A) (A) (A) (A)
       Virtual   (A) (A) (A) (A) (A) (A) (A) (A) (A) (A) (A) (A)
                 (A) (A) (A) (A) (A) (A) (A) (A) (A) (A) (A) (A)
                 (A) (A) (A) (A) (A) (A) (A) (A) (A) (A) (A) (A)
                 (A) (A) (A) (A) (A) (A) (A) (A) (A) (A) (A) (A)
                 (A) (A) (A) (A) (A) (A) (A) (A) (A) (A) (A) (A)
                 (A) (A) (A) (A) (A) (A) (A) (A) (A) (A) (A) (A)
                 (A) (A) (A) (A) (A) (A) (A) (A) (A) (A) (A) (A)
                 (A) (A) (A) (A) (A) (A) (A) (A) (A) (A) (A) (A)
                 (A) (A) (A) (A) (A) (A) (A) (A) (A) (A) (A) (A)
                 (A) (A) (A) (A) (A)
 The electronic state is 1-A.
 Alpha  occ. eigenvalues --  -15.50740 -15.49304 -11.24951 -11.24605 -11.23148
 Alpha  occ. eigenvalues --  -11.22566 -11.21872 -11.21698 -11.20910 -11.20433
 Alpha  occ. eigenvalues --  -11.20148 -11.19792 -11.16214 -11.16071 -11.16024
 Alpha  occ. eigenvalues --   -1.29984  -1.24415  -1.18628  -1.08943  -1.07452
 Alpha  occ. eigenvalues --   -1.04956  -1.02392  -0.97993  -0.89709  -0.87951
 Alpha  occ. eigenvalues --   -0.86581  -0.81392  -0.80631  -0.76488  -0.70975
 Alpha  occ. eigenvalues --   -0.67860  -0.66806  -0.65245  -0.64099  -0.62852
 Alpha  occ. eigenvalues --   -0.60834  -0.60266  -0.58127  -0.55492  -0.55393
 Alpha  occ. eigenvalues --   -0.55080  -0.54373  -0.53699  -0.52849  -0.52236
 Alpha  occ. eigenvalues --   -0.49205  -0.47835  -0.47439  -0.47153  -0.45311
 Alpha  occ. eigenvalues --   -0.38951  -0.36743  -0.34757  -0.30212
 Alpha virt. eigenvalues --    0.09491   0.11572   0.13194   0.21763   0.23799
 Alpha virt. eigenvalues --    0.24552   0.25747   0.27191   0.28085   0.30491
 Alpha virt. eigenvalues --    0.30936   0.31855   0.33126   0.33616   0.34343
 Alpha virt. eigenvalues --    0.35174   0.35528   0.36824   0.37177   0.37803
 Alpha virt. eigenvalues --    0.39644   0.40262   0.41602   0.42108   0.44111
 Alpha virt. eigenvalues --    0.44626   0.46930   0.48878   0.49111   0.52502
 Alpha virt. eigenvalues --    0.54930   0.56092   0.57817   0.58483   0.69124
 Alpha virt. eigenvalues --    0.75909   0.81882   0.88805   0.90617   0.91622
 Alpha virt. eigenvalues --    0.92496   0.93886   0.95642   0.96209   0.97610
 Alpha virt. eigenvalues --    0.98320   0.99229   1.00541   1.00919   1.01859
 Alpha virt. eigenvalues --    1.02435   1.03674   1.04455   1.04699   1.07355
 Alpha virt. eigenvalues --    1.07918   1.09567   1.11960   1.12910   1.14142
 Alpha virt. eigenvalues --    1.16712   1.17249   1.18845   1.21883   1.22708
 Alpha virt. eigenvalues --    1.25255   1.26357   1.27595   1.29729   1.30080
 Alpha virt. eigenvalues --    1.30421   1.32606   1.35822   1.36685   1.38534
 Alpha virt. eigenvalues --    1.39477   1.40456   1.41350   1.41998   1.43406
 Alpha virt. eigenvalues --    1.44494   1.45368   1.46580   1.47179   1.48434
 Alpha virt. eigenvalues --    1.51236   1.52679   1.54097   1.56721   1.58404
 Alpha virt. eigenvalues --    1.60858   1.62520   1.64525   1.66600   1.74832
 Alpha virt. eigenvalues --    1.75688   1.80054   1.81042   1.83609   1.88639
 Alpha virt. eigenvalues --    1.98891   2.00911   2.04109   2.11460   2.19634
 Alpha virt. eigenvalues --    2.20274   2.26010   2.48327   2.62679   2.72001
 Alpha virt. eigenvalues --    2.83847   3.24454   3.40504
          Condensed to atoms (all electrons):
              1          2          3          4          5          6
     1  C    5.314412   0.453689  -0.110135  -0.002237  -0.117950   0.453811
     2  C    0.453689   5.161493   0.459744  -0.113937  -0.001634  -0.079063
     3  C   -0.110135   0.459744   5.190682   0.483806  -0.104965  -0.002419
     4  C   -0.002237  -0.113937   0.483806   5.047974   0.395484  -0.086668
     5  C   -0.117950  -0.001634  -0.104965   0.395484   5.321358   0.442281
     6  C    0.453811  -0.079063  -0.002419  -0.086668   0.442281   5.154756
     7  H   -0.032514   0.395564  -0.025641   0.002310   0.000002   0.001856
     8  H    0.002252  -0.028927   0.393664  -0.032756   0.002944  -0.000265
     9  H    0.002416   0.000004   0.001647  -0.038974   0.401088  -0.030570
    10  H   -0.032027   0.001815   0.000001   0.001522  -0.023600   0.395174
    11  C    0.211060  -0.053010   0.001281   0.000114   0.001581  -0.051138
    12  N   -0.075284  -0.000038  -0.000002   0.000000  -0.000003   0.000021
    13  N   -0.000197   0.002444  -0.045562   0.290234  -0.058181   0.003520
    14  C   -0.000003  -0.000104   0.001540  -0.067210  -0.008563   0.000332
    15  H   -0.000001   0.000008  -0.000134   0.000467  -0.002223  -0.000414
    16  C    0.000056   0.000011  -0.001800  -0.119101  -0.002471  -0.000063
    17  H   -0.000025   0.000028   0.000358  -0.006592   0.006196  -0.000447
    18  C    0.000000  -0.000226  -0.004737  -0.004135  -0.000224   0.000031
    19  H    0.000000   0.000010   0.000116   0.000169   0.000013  -0.000001
    20  H   -0.000007   0.000275  -0.000455   0.000401   0.000048  -0.000025
    21  H    0.000000   0.000003   0.000044   0.000149   0.000017  -0.000001
    22  C    0.000000   0.000014  -0.000012  -0.007684  -0.002963  -0.000066
    23  H   -0.000013  -0.000020   0.000120   0.001660   0.000682   0.000187
    24  H    0.000000   0.000001  -0.000046   0.000556   0.000083  -0.000001
    25  H    0.000000   0.000000  -0.000001  -0.000009   0.000039  -0.000001
    26  C    0.000000   0.000000  -0.000047   0.005044  -0.000084   0.000000
    27  H    0.000000   0.000000   0.000004  -0.000359   0.000013   0.000000
    28  H    0.000000   0.000000  -0.000002   0.000071  -0.000002   0.000000
    29  C    0.000000   0.000001   0.000001   0.007136  -0.000162   0.000004
    30  H    0.000000   0.000000   0.000008  -0.000308   0.000002   0.000000
    31  H    0.000000   0.000000  -0.000002  -0.000040   0.000001   0.000000
              7          8          9         10         11         12
     1  C   -0.032514   0.002252   0.002416  -0.032027   0.211060  -0.075284
     2  C    0.395564  -0.028927   0.000004   0.001815  -0.053010  -0.000038
     3  C   -0.025641   0.393664   0.001647   0.000001   0.001281  -0.000002
     4  C    0.002310  -0.032756  -0.038974   0.001522   0.000114   0.000000
     5  C    0.000002   0.002944   0.401088  -0.023600   0.001581  -0.000003
     6  C    0.001856  -0.000265  -0.030570   0.395174  -0.051138   0.000021
     7  H    0.387668  -0.001372   0.000001  -0.000032  -0.000843  -0.000123
     8  H   -0.001372   0.391947  -0.000021   0.000001  -0.000036   0.000000
     9  H    0.000001  -0.000021   0.402088  -0.000936  -0.000041   0.000000
    10  H   -0.000032   0.000001  -0.000936   0.384170  -0.000746  -0.000111
    11  C   -0.000843  -0.000036  -0.000041  -0.000746   4.703874   0.836055
    12  N   -0.000123   0.000000   0.000000  -0.000111   0.836055   6.748618
    13  N   -0.000013   0.000630  -0.006113  -0.000010   0.000000   0.000000
    14  C    0.000000  -0.000061  -0.000536  -0.000001   0.000000   0.000000
    15  H    0.000000   0.000011   0.005951   0.000001   0.000000   0.000000
    16  C    0.000002  -0.000097   0.000144   0.000001   0.000000   0.000000
    17  H    0.000000   0.000130   0.000710   0.000003   0.000000   0.000000
    18  C   -0.000002  -0.000751  -0.000025   0.000000   0.000000   0.000000
    19  H    0.000000   0.000493   0.000000   0.000000   0.000000   0.000000
    20  H    0.000002  -0.000591   0.000001   0.000000   0.000000   0.000000
    21  H    0.000000   0.000044   0.000001   0.000000   0.000000   0.000000
    22  C    0.000000  -0.000014  -0.000918   0.000000   0.000000   0.000000
    23  H    0.000000  -0.000005  -0.000112  -0.000002   0.000000   0.000000
    24  H    0.000000   0.000008   0.000016   0.000000   0.000000   0.000000
    25  H    0.000000   0.000000   0.000117   0.000000   0.000000   0.000000
    26  C    0.000000  -0.000007   0.000106   0.000000   0.000000   0.000000
    27  H    0.000000   0.000000  -0.000004   0.000000   0.000000   0.000000
    28  H    0.000000   0.000000   0.000000   0.000000   0.000000   0.000000
    29  C    0.000000  -0.000021  -0.000060   0.000000   0.000000   0.000000
    30  H    0.000000   0.000008   0.000001   0.000000   0.000000   0.000000
    31  H    0.000000   0.000000   0.000001   0.000000   0.000000   0.000000
             13         14         15         16         17         18
     1  C   -0.000197  -0.000003  -0.000001   0.000056  -0.000025   0.000000
     2  C    0.002444  -0.000104   0.000008   0.000011   0.000028  -0.000226
     3  C   -0.045562   0.001540  -0.000134  -0.001800   0.000358  -0.004737
     4  C    0.290234  -0.067210   0.000467  -0.119101  -0.006592  -0.004135
     5  C   -0.058181  -0.008563  -0.002223  -0.002471   0.006196  -0.000224
     6  C    0.003520   0.000332  -0.000414  -0.000063  -0.000447   0.000031
     7  H   -0.000013   0.000000   0.000000   0.000002   0.000000  -0.000002
     8  H    0.000630  -0.000061   0.000011  -0.000097   0.000130  -0.000751
     9  H   -0.006113  -0.000536   0.005951   0.000144   0.000710  -0.000025
    10  H   -0.000010  -0.000001   0.000001   0.000001   0.000003   0.000000
    11  C    0.000000   0.000000   0.000000   0.000000   0.000000   0.000000
    12  N    0.000000   0.000000   0.000000   0.000000   0.000000   0.000000
    13  N    7.511881   0.174548  -0.056543   0.203835  -0.059858  -0.060971
    14  C    0.174548   5.589460   0.379187  -0.172251  -0.003047   0.007406
    15  H   -0.056543   0.379187   0.521902   0.000782   0.007568  -0.000469
    16  C    0.203835  -0.172251   0.000782   5.532307   0.381914   0.268584
    17  H   -0.059858  -0.003047   0.007568   0.381914   0.562424  -0.054835
    18  C   -0.060971   0.007406  -0.000469   0.268584  -0.054835   5.374017
    19  H    0.002818  -0.000102   0.000016  -0.048370   0.003612   0.371501
    20  H   -0.001804  -0.000098   0.000001  -0.041657  -0.001341   0.380096
    21  H    0.002632  -0.000163   0.000016  -0.047321   0.001048   0.368404
    22  C   -0.050723   0.260672  -0.052899   0.006536  -0.000397  -0.000079
    23  H   -0.001936  -0.040214  -0.001870   0.000005   0.000003  -0.000001
    24  H    0.001714  -0.047394   0.003510  -0.000041   0.000010  -0.000005
    25  H    0.002956  -0.051878   0.000497  -0.000160   0.000014   0.000001
    26  C   -0.081261   0.290106  -0.038610  -0.069386  -0.001383   0.003897
    27  H    0.007901  -0.101011  -0.001202   0.001852   0.000064  -0.000038
    28  H   -0.001307  -0.008905   0.001343   0.005563  -0.000249  -0.000093
    29  C   -0.068008  -0.137927  -0.012114   0.252697  -0.057935  -0.065051
    30  H    0.005584  -0.003188   0.000629  -0.078173   0.007049  -0.007529
    31  H    0.002158   0.004150  -0.000051  -0.037602  -0.004043   0.003398
             19         20         21         22         23         24
     1  C    0.000000  -0.000007   0.000000   0.000000  -0.000013   0.000000
     2  C    0.000010   0.000275   0.000003   0.000014  -0.000020   0.000001
     3  C    0.000116  -0.000455   0.000044  -0.000012   0.000120  -0.000046
     4  C    0.000169   0.000401   0.000149  -0.007684   0.001660   0.000556
     5  C    0.000013   0.000048   0.000017  -0.002963   0.000682   0.000083
     6  C   -0.000001  -0.000025  -0.000001  -0.000066   0.000187  -0.000001
     7  H    0.000000   0.000002   0.000000   0.000000   0.000000   0.000000
     8  H    0.000493  -0.000591   0.000044  -0.000014  -0.000005   0.000008
     9  H    0.000000   0.000001   0.000001  -0.000918  -0.000112   0.000016
    10  H    0.000000   0.000000   0.000000   0.000000  -0.000002   0.000000
    11  C    0.000000   0.000000   0.000000   0.000000   0.000000   0.000000
    12  N    0.000000   0.000000   0.000000   0.000000   0.000000   0.000000
    13  N    0.002818  -0.001804   0.002632  -0.050723  -0.001936   0.001714
    14  C   -0.000102  -0.000098  -0.000163   0.260672  -0.040214  -0.047394
    15  H    0.000016   0.000001   0.000016  -0.052899  -0.001870   0.003510
    16  C   -0.048370  -0.041657  -0.047321   0.006536   0.000005  -0.000041
    17  H    0.003612  -0.001341   0.001048  -0.000397   0.000003   0.000010
    18  C    0.371501   0.380096   0.368404  -0.000079  -0.000001  -0.000005
    19  H    0.501832  -0.023643  -0.022867  -0.000006   0.000000   0.000001
    20  H   -0.023643   0.479450  -0.022807   0.000000   0.000000   0.000000
    21  H   -0.022867  -0.022807   0.517588   0.000001   0.000000   0.000000
    22  C   -0.000006   0.000000   0.000001   5.434550   0.379075   0.376104
    23  H    0.000000   0.000000   0.000000   0.379075   0.472766  -0.019682
    24  H    0.000001   0.000000   0.000000   0.376104  -0.019682   0.487886
    25  H    0.000000   0.000000   0.000000   0.368289  -0.023073  -0.025041
    26  C   -0.000051  -0.000100   0.000039  -0.069162   0.003514  -0.001130
    27  H   -0.000001   0.000001   0.000000  -0.014825   0.000375  -0.002531
    28  H   -0.000043  -0.000002   0.000015   0.001236  -0.000023   0.000637
    29  C   -0.002668   0.003351  -0.001284   0.004755  -0.000132  -0.000358
    30  H    0.005326   0.000124   0.000073  -0.000427   0.000007   0.000031
    31  H   -0.000085  -0.000163   0.001909  -0.000013   0.000000   0.000000
             25         26         27         28         29         30
     1  C    0.000000   0.000000   0.000000   0.000000   0.000000   0.000000
     2  C    0.000000   0.000000   0.000000   0.000000   0.000001   0.000000
     3  C   -0.000001  -0.000047   0.000004  -0.000002   0.000001   0.000008
     4  C   -0.000009   0.005044  -0.000359   0.000071   0.007136  -0.000308
     5  C    0.000039  -0.000084   0.000013  -0.000002  -0.000162   0.000002
     6  C   -0.000001   0.000000   0.000000   0.000000   0.000004   0.000000
     7  H    0.000000   0.000000   0.000000   0.000000   0.000000   0.000000
     8  H    0.000000  -0.000007   0.000000   0.000000  -0.000021   0.000008
     9  H    0.000117   0.000106  -0.000004   0.000000  -0.000060   0.000001
    10  H    0.000000   0.000000   0.000000   0.000000   0.000000   0.000000
    11  C    0.000000   0.000000   0.000000   0.000000   0.000000   0.000000
    12  N    0.000000   0.000000   0.000000   0.000000   0.000000   0.000000
    13  N    0.002956  -0.081261   0.007901  -0.001307  -0.068008   0.005584
    14  C   -0.051878   0.290106  -0.101011  -0.008905  -0.137927  -0.003188
    15  H    0.000497  -0.038610  -0.001202   0.001343  -0.012114   0.000629
    16  C   -0.000160  -0.069386   0.001852   0.005563   0.252697  -0.078173
    17  H    0.000014  -0.001383   0.000064  -0.000249  -0.057935   0.007049
    18  C    0.000001   0.003897  -0.000038  -0.000093  -0.065051  -0.007529
    19  H    0.000000  -0.000051  -0.000001  -0.000043  -0.002668   0.005326
    20  H    0.000000  -0.000100   0.000001  -0.000002   0.003351   0.000124
    21  H    0.000000   0.000039   0.000000   0.000015  -0.001284   0.000073
    22  C    0.368289  -0.069162  -0.014825   0.001236   0.004755  -0.000427
    23  H   -0.023073   0.003514   0.000375  -0.000023  -0.000132   0.000007
    24  H   -0.025041  -0.001130  -0.002531   0.000637  -0.000358   0.000031
    25  H    0.513167  -0.000079   0.003827  -0.000170   0.000165   0.000014
    26  C   -0.000079   5.804336   0.334236   0.426554   0.090791  -0.125626
    27  H    0.003827   0.334236   0.481412  -0.077772   0.022933   0.004201
    28  H   -0.000170   0.426554  -0.077772   0.605610  -0.144964  -0.051978
    29  C    0.000165   0.090791   0.022933  -0.144964   5.775551   0.425907
    30  H    0.000014  -0.125626   0.004201  -0.051978   0.425907   0.622132
    31  H   -0.000001   0.011595  -0.000740   0.007533   0.360042  -0.066209
             31
     1  C    0.000000
     2  C    0.000000
     3  C   -0.000002
     4  C   -0.000040
     5  C    0.000001
     6  C    0.000000
     7  H    0.000000
     8  H    0.000000
     9  H    0.000001
    10  H    0.000000
    11  C    0.000000
    12  N    0.000000
    13  N    0.002158
    14  C    0.004150
    15  H   -0.000051
    16  C   -0.037602
    17  H   -0.004043
    18  C    0.003398
    19  H   -0.000085
    20  H   -0.000163
    21  H    0.001909
    22  C   -0.000013
    23  H    0.000000
    24  H    0.000000
    25  H   -0.000001
    26  C    0.011595
    27  H   -0.000740
    28  H    0.007533
    29  C    0.360042
    30  H   -0.066209
    31  H    0.483949
 Mulliken atomic charges:
              1
     1  C   -0.067304
     2  C   -0.198147
     3  C   -0.237057
     4  C    0.242914
     5  C   -0.248808
     6  C   -0.200833
     7  H    0.273137
     8  H    0.272792
     9  H    0.264017
    10  H    0.274777
    11  C    0.351849
    12  N   -0.509134
    13  N   -0.720367
    14  C   -0.064745
    15  H    0.244642
    16  C   -0.035794
    17  H    0.219020
    18  C   -0.578162
    19  H    0.211927
    20  H    0.228941
    21  H    0.202462
    22  C   -0.631042
    23  H    0.228689
    24  H    0.225671
    25  H    0.211327
    26  C   -0.583294
    27  H    0.341664
    28  H    0.236950
    29  C   -0.452651
    30  H    0.262343
    31  H    0.234215
 Sum of Mulliken atomic charges =   0.00000
 Mulliken charges with hydrogens summed into heavy atoms:
              1
     1  C   -0.067304
     2  C    0.074991
     3  C    0.035735
     4  C    0.242914
     5  C    0.015209
     6  C    0.073945
    11  C    0.351849
    12  N   -0.509134
    13  N   -0.720367
    14  C    0.179897
    16  C    0.183226
    18  C    0.065169
    22  C    0.034645
    26  C   -0.004681
    29  C    0.043907
 Sum of Mulliken charges with hydrogens summed into heavy atoms =   0.00000
 Electronic spatial extent (au):  <R**2>=           3792.5852
 Charge=              0.0000 electrons
 Dipole moment (field-independent basis, Debye):
    X=             -4.2203    Y=              0.1552    Z=              0.9583  Tot=              4.3305
 Quadrupole moment (field-independent basis, Debye-Ang):
   XX=           -125.0234   YY=            -87.2618   ZZ=            -91.9855
   XY=             -3.7370   XZ=              0.4224   YZ=              3.4534
 Traceless Quadrupole moment (field-independent basis, Debye-Ang):
   XX=            -23.5998   YY=             14.1618   ZZ=              9.4381
   XY=             -3.7370   XZ=              0.4224   YZ=              3.4534
 Octapole moment (field-independent basis, Debye-Ang**2):
  XXX=           -219.7938  YYY=              1.2693  ZZZ=              6.4871  XYY=             -7.5881
  XXY=              9.4798  XXZ=             46.1566  XZZ=              8.5400  YZZ=              2.8733
  YYZ=             -1.4302  XYZ=             18.0606
 Hexadecapole moment (field-independent basis, Debye-Ang**3):
 XXXX=          -5488.4805 YYYY=           -904.7828 ZZZZ=           -356.5151 XXXY=           -109.0944
 XXXZ=             46.0050 YYYX=             -9.0582 YYYZ=              6.2453 ZZZX=            -14.8164
 ZZZY=             17.9937 XXYY=           -797.7730 XXZZ=           -755.3960 YYZZ=           -197.6756
 XXYZ=             -2.3644 YYXZ=             -6.1635 ZZXY=             -2.2198
 N-N= 9.556872650404D+02 E-N=-3.323096379307D+03  KE= 6.061575761165D+02
 Calling FoFJK, ICntrl=      2127 FMM=F ISym2X=0 I1Cent= 0 IOpClX= 0 NMat=1 NMatS=1 NMatT=0.
 ***** Axes restored to original set *****
 -------------------------------------------------------------------
 Center     Atomic                   Forces (Hartrees/Bohr)
 Number     Number              X              Y              Z
 -------------------------------------------------------------------
      1        6          -0.022130305   -0.031987104   -0.026355965
      2        6          -0.006067556    0.014447645    0.000557888
      3        6          -0.018820336    0.000128765   -0.004487676
      4        6           0.000811186    0.010358792    0.015265120
      5        6           0.003379450   -0.021694334   -0.013224319
      6        6           0.012326743    0.001176226    0.003129141
      7        1           0.002008313   -0.006742761   -0.005120995
      8        1           0.004208017   -0.000269477    0.001677351
      9        1          -0.004805930    0.004108845   -0.002334992
     10        1          -0.002977530    0.002161187   -0.001437905
     11        6           0.014852972    0.012528695    0.020984817
     12        7           0.022652925    0.020170155    0.019233818
     13        7          -0.045764451   -0.047012370    0.008958051
     14        6           0.029682636   -0.075304442    0.041303624
     15        1           0.005183023    0.023216647    0.000046867
     16        6           0.013798149    0.018801184   -0.041785060
     17        1          -0.010705389    0.003102561   -0.011290802
     18        6          -0.003900584    0.014163570    0.006329485
     19        1           0.003067231   -0.002216006    0.003228869
     20        1          -0.000183580   -0.001348211   -0.004177432
     21        1           0.004055620    0.001855280   -0.008438167
     22        6          -0.002373844    0.000695081   -0.014356726
     23        1          -0.003898905   -0.005514418    0.003291732
     24        1           0.004654491   -0.005680050    0.001645390
     25        1          -0.006074036    0.007123013    0.008982590
     26        6          -0.009991294   -0.002945465   -0.017776996
     27        1          -0.036928772    0.104404372    0.044627551
     28        1           0.004542846   -0.061426329    0.028015169
     29        6           0.077466050   -0.002190946   -0.028929153
     30        1           0.008303656   -0.020597769   -0.017593366
     31        1          -0.036370798    0.046487666   -0.009967908
 -------------------------------------------------------------------
 Cartesian Forces:  Max     0.104404372 RMS     0.023957026

 GradGradGradGradGradGradGradGradGradGradGradGradGradGradGradGradGradGrad
 Berny optimization.
 Internal  Forces:  Max     0.077842560 RMS     0.016222402
 Search for a local minimum.
 Step number   1 out of a maximum of  186
 All quantities printed in internal units (Hartrees-Bohrs-Radians)
 Mixed Optimization -- RFO/linear search
 Second derivative matrix not updated -- first step.
     Eigenvalues ---    0.00230   0.00235   0.00388   0.00710   0.00710
     Eigenvalues ---    0.00983   0.01434   0.01714   0.02101   0.02118
     Eigenvalues ---    0.02128   0.02163   0.02181   0.02200   0.02208
     Eigenvalues ---    0.02213   0.02905   0.03246   0.04208   0.04290
     Eigenvalues ---    0.04444   0.04575   0.04951   0.04951   0.05155
     Eigenvalues ---    0.05695   0.05717   0.05732   0.05734   0.05927
     Eigenvalues ---    0.06277   0.06770   0.07276   0.07921   0.10393
     Eigenvalues ---    0.14356   0.15669   0.15943   0.15998   0.15999
     Eigenvalues ---    0.15999   0.16000   0.16000   0.16000   0.16000
     Eigenvalues ---    0.16000   0.16000   0.16000   0.17289   0.18909
     Eigenvalues ---    0.21954   0.22875   0.22921   0.23736   0.24002
     Eigenvalues ---    0.24991   0.24995   0.28068   0.28107   0.28509
     Eigenvalues ---    0.28812   0.35243   0.35299   0.35927   0.36138
     Eigenvalues ---    0.36436   0.36595   0.36794   0.36835   0.36881
     Eigenvalues ---    0.37110   0.37176   0.37213   0.37563   0.37752
     Eigenvalues ---    0.38101   0.38190   0.38446   0.38505   0.40348
     Eigenvalues ---    0.41633   0.42749   0.45344   0.46416   0.46815
     Eigenvalues ---    0.47501   1.320861000.000001000.000001000.00000
     Eigenvalues --- 1000.000001000.000001000.000001000.000001000.00000
     Eigenvalues --- 1000.000001000.000001000.000001000.000001000.00000
     Eigenvalues --- 1000.000001000.000001000.000001000.000001000.00000
     Eigenvalues --- 1000.000001000.000001000.000001000.000001000.00000
     Eigenvalues --- 1000.000001000.000001000.000001000.000001000.00000
     Eigenvalues --- 1000.000001000.000001000.000001000.000001000.00000
     Eigenvalues --- 1000.000001000.000001000.000001000.000001000.00000
     Eigenvalues --- 1000.000001000.000001000.000001000.000001000.00000
     Eigenvalues --- 1000.000001000.000001000.000001000.000001000.00000
     Eigenvalues --- 1000.000001000.000001000.000001000.000001000.00000
     Eigenvalues --- 1000.000001000.000001000.000001000.000001000.00000
     Eigenvalues --- 1000.000001000.000001000.000001000.000001000.00000
     Eigenvalues --- 1000.000001000.000001000.000001000.000001000.00000
     Eigenvalues --- 1000.000001000.000001000.000001000.000001000.00000
     Eigenvalues --- 1000.000001000.000001000.000001000.000001000.00000
     Eigenvalues --- 1000.000001000.000001000.000001000.000001000.00000
     Eigenvalues --- 1000.000001000.000001000.000001000.000001000.00000
     Eigenvalues --- 1000.00000
 RFO step:  Lambda=-1.59089089D-01 EMin= 2.30000000D-03
 Linear search not attempted -- first point.
 Maximum step size (   0.300) exceeded in Quadratic search.
    -- Step size scaled by   0.375
 Iteration  1 RMS(Cart)=  0.03723814 RMS(Int)=  0.00189696
 Iteration  2 RMS(Cart)=  0.00124580 RMS(Int)=  0.00042275
 Iteration  3 RMS(Cart)=  0.00001210 RMS(Int)=  0.00042246
 Iteration  4 RMS(Cart)=  0.00000001 RMS(Int)=  0.00042246
 Variable       Old X    -DE/DX   Delta X   Delta X   Delta X     New X
                                 (Linear)    (Quad)   (Total)
    R1        2.64803  -0.01831   0.00000  -0.01130  -0.01130   2.63672
    R2        2.62263  -0.00723   0.00000  -0.00435  -0.00435   2.61828
    R3        2.91904  -0.06376   0.00000  -0.05428  -0.05428   2.86477
    R4        2.63065  -0.01187   0.00000  -0.00709  -0.00709   2.62356
    R5        2.00337   0.00826   0.00000   0.00569   0.00569   2.00906
    R6        2.62679  -0.00349   0.00000  -0.00197  -0.00197   2.62481
    R7        2.00918   0.00427   0.00000   0.00296   0.00296   2.01214
    R8        2.64867  -0.00839   0.00000  -0.00502  -0.00502   2.64364
    R9        2.78582  -0.00921   0.00000  -0.00675  -0.00675   2.77907
   R10        2.63857  -0.01388   0.00000  -0.00835  -0.00835   2.63022
   R11        2.00421   0.00404   0.00000   0.00278   0.00278   2.00699
   R12        2.01427   0.00358   0.00000   0.00250   0.00250   2.01677
   R13        2.17996  -0.03590   0.00000  -0.00909  -0.00909   2.17087
   R14        2.74329   0.01819   0.00000   0.01367   0.01381   2.75710
   R15        2.67058   0.07784   0.00000   0.05049   0.05028   2.72087
   R16        2.02380   0.00697   0.00000   0.00492   0.00492   2.02872
   R17        2.91990   0.00326   0.00000   0.00278   0.00278   2.92268
   R18        2.99367   0.03200   0.00000   0.02658   0.02667   3.02034
   R19        2.02226   0.01556   0.00000   0.01098   0.01098   2.03323
   R20        2.91038  -0.00284   0.00000  -0.00239  -0.00239   2.90799
   R21        2.87491   0.01049   0.00000   0.00982   0.00970   2.88460
   R22        2.03405   0.00484   0.00000   0.00346   0.00346   2.03751
   R23        2.03161   0.00274   0.00000   0.00195   0.00195   2.03356
   R24        2.02726   0.00872   0.00000   0.00619   0.00619   2.03345
   R25        2.02796   0.00591   0.00000   0.00420   0.00420   2.03216
   R26        2.02858   0.00698   0.00000   0.00496   0.00496   2.03354
   R27        2.01706   0.01264   0.00000   0.00886   0.00886   2.02592
   R28        2.00790   0.02914   0.00000   0.02018   0.02018   2.02808
   R29        2.04196   0.00950   0.00000   0.00687   0.00687   2.04884
   R30        3.02931   0.05856   0.00000   0.05383   0.05391   3.08322
   R31        2.02282   0.00979   0.00000   0.00691   0.00691   2.02973
   R32        2.03866   0.01248   0.00000   0.00898   0.00898   2.04764
    A1        2.09346   0.00315   0.00000   0.00269   0.00268   2.09615
    A2        2.08555  -0.00062   0.00000  -0.00047  -0.00047   2.08508
    A3        2.10401  -0.00252   0.00000  -0.00221  -0.00221   2.10181
    A4        2.09987  -0.00431   0.00000  -0.00440  -0.00441   2.09546
    A5        2.09278   0.00116   0.00000   0.00104   0.00104   2.09382
    A6        2.09047   0.00317   0.00000   0.00340   0.00340   2.09387
    A7        2.08624   0.00671   0.00000   0.00684   0.00684   2.09308
    A8        2.09917  -0.00186   0.00000  -0.00165  -0.00165   2.09752
    A9        2.09767  -0.00484   0.00000  -0.00516  -0.00515   2.09251
   A10        2.08970  -0.00679   0.00000  -0.00588  -0.00589   2.08381
   A11        2.10042  -0.01492   0.00000  -0.01384  -0.01383   2.08659
   A12        2.09275   0.02172   0.00000   0.01973   0.01973   2.11248
   A13        2.09987   0.00091   0.00000   0.00119   0.00118   2.10105
   A14        2.09438   0.00401   0.00000   0.00465   0.00466   2.09904
   A15        2.08890  -0.00491   0.00000  -0.00583  -0.00582   2.08308
   A16        2.08341   0.00097   0.00000   0.00093   0.00092   2.08433
   A17        2.09587   0.00000   0.00000   0.00010   0.00011   2.09597
   A18        2.10387  -0.00096   0.00000  -0.00102  -0.00102   2.10285
   A19        2.01190   0.01192   0.00000   0.01212   0.01207   2.02397
   A20        1.91002   0.00246   0.00000   0.00261   0.00266   1.91268
   A21        1.77937  -0.01355   0.00000  -0.01120  -0.01125   1.76812
   A22        1.92993  -0.01191   0.00000  -0.01770  -0.01769   1.91224
   A23        1.91713   0.00839   0.00000   0.01514   0.01486   1.93199
   A24        1.86150   0.01134   0.00000   0.01362   0.01366   1.87515
   A25        1.90200   0.00582   0.00000   0.00665   0.00677   1.90877
   A26        1.91121  -0.01194   0.00000  -0.02222  -0.02219   1.88901
   A27        1.94207  -0.00201   0.00000   0.00409   0.00375   1.94581
   A28        1.91792  -0.00370   0.00000  -0.00300  -0.00313   1.91479
   A29        1.94741   0.01063   0.00000   0.01189   0.01209   1.95950
   A30        1.82007   0.00218   0.00000   0.00422   0.00421   1.82429
   A31        1.90464  -0.00040   0.00000  -0.00157  -0.00158   1.90306
   A32        1.89772   0.00623   0.00000   0.00740   0.00742   1.90514
   A33        1.97410  -0.01483   0.00000  -0.01862  -0.01869   1.95541
   A34        1.91069  -0.00139   0.00000  -0.00150  -0.00150   1.90919
   A35        1.91104   0.00207   0.00000   0.00228   0.00228   1.91332
   A36        1.90823   0.00491   0.00000   0.00579   0.00578   1.91401
   A37        1.91012  -0.00046   0.00000  -0.00059  -0.00059   1.90953
   A38        1.90995  -0.00107   0.00000  -0.00094  -0.00094   1.90901
   A39        1.91376  -0.00407   0.00000  -0.00503  -0.00504   1.90872
   A40        1.91489   0.00562   0.00000   0.00644   0.00643   1.92132
   A41        1.90675  -0.00150   0.00000  -0.00190  -0.00189   1.90485
   A42        1.91068   0.00311   0.00000   0.00394   0.00394   1.91462
   A43        1.91492  -0.00338   0.00000  -0.00457  -0.00456   1.91036
   A44        1.90555  -0.00375   0.00000  -0.00413  -0.00415   1.90140
   A45        1.91101  -0.00008   0.00000   0.00023   0.00023   1.91124
   A46        1.44328   0.02613   0.00000   0.04261   0.04368   1.48695
   A47        2.45061  -0.03671   0.00000  -0.06479  -0.06525   2.38536
   A48        1.61223  -0.00388   0.00000  -0.00583  -0.00597   1.60627
   A49        1.54950  -0.00013   0.00000   0.00246   0.00702   1.55652
   A50        2.88260   0.07120   0.00000   0.11627   0.11615   2.99875
   A51        1.50359   0.01662   0.00000   0.02276   0.02463   1.52822
   A52        1.91468   0.00075   0.00000  -0.00095  -0.00098   1.91370
   A53        1.75493  -0.01804   0.00000  -0.02547  -0.02553   1.72940
   A54        1.92795   0.01771   0.00000   0.02134   0.02100   1.94896
   A55        1.52857   0.01966   0.00000   0.03339   0.03375   1.56232
   A56        2.43854  -0.01938   0.00000  -0.02255  -0.02276   2.41578
   A57        1.53739   0.00151   0.00000   0.00800   0.00887   1.54626
   A58        3.14008  -0.00006   0.00000  -0.00010  -0.00010   3.13998
   A59        3.14080   0.00119   0.00000   0.00214   0.00214   3.14294
    D1       -0.12878   0.00357   0.00000   0.00748   0.00748  -0.12130
    D2        3.02505   0.00181   0.00000   0.00403   0.00404   3.02909
    D3        2.99389   0.00399   0.00000   0.00805   0.00803   3.00192
    D4       -0.13546   0.00223   0.00000   0.00460   0.00459  -0.13087
    D5        0.10695  -0.00238   0.00000  -0.00535  -0.00537   0.10158
    D6       -3.04325  -0.00171   0.00000  -0.00407  -0.00409  -3.04734
    D7       -3.01551  -0.00283   0.00000  -0.00595  -0.00595  -3.02146
    D8        0.11747  -0.00215   0.00000  -0.00466  -0.00467   0.11280
    D9        0.01366  -0.00134   0.00000  -0.00244  -0.00243   0.01123
   D10       -3.11252  -0.00258   0.00000  -0.00512  -0.00511  -3.11763
   D11       -3.14017   0.00041   0.00000   0.00099   0.00100  -3.13917
   D12        0.01684  -0.00084   0.00000  -0.00169  -0.00169   0.01515
   D13        0.12066  -0.00234   0.00000  -0.00487  -0.00486   0.11579
   D14       -2.99428  -0.00268   0.00000  -0.00541  -0.00541  -2.99969
   D15       -3.03634  -0.00107   0.00000  -0.00216  -0.00216  -3.03849
   D16        0.13191  -0.00141   0.00000  -0.00270  -0.00270   0.12921
   D17       -0.14244   0.00352   0.00000   0.00695   0.00695  -0.13549
   D18        3.00848   0.00288   0.00000   0.00541   0.00539   3.01387
   D19        2.97262   0.00330   0.00000   0.00697   0.00697   2.97959
   D20       -0.15965   0.00265   0.00000   0.00543   0.00542  -0.15423
   D21       -2.71684  -0.00026   0.00000   0.00637   0.00635  -2.71050
   D22        1.57373   0.00799   0.00000   0.01143   0.01146   1.58519
   D23        0.45145  -0.00016   0.00000   0.00623   0.00620   0.45765
   D24       -1.54116   0.00809   0.00000   0.01129   0.01131  -1.52985
   D25        0.02767  -0.00021   0.00000  -0.00101  -0.00103   0.02664
   D26       -3.10527  -0.00089   0.00000  -0.00231  -0.00232  -3.10759
   D27       -3.12322   0.00048   0.00000   0.00059   0.00057  -3.12265
   D28        0.02703  -0.00020   0.00000  -0.00071  -0.00072   0.02631
   D29       -0.91725  -0.01601   0.00000  -0.03118  -0.03107  -0.94832
   D30        1.18265  -0.01094   0.00000  -0.02442  -0.02451   1.15814
   D31       -2.99391  -0.00186   0.00000  -0.00285  -0.00282  -2.99673
   D32        1.14971  -0.01594   0.00000  -0.02929  -0.02927   1.12044
   D33       -3.03358  -0.01088   0.00000  -0.02253  -0.02270  -3.05628
   D34       -0.92695  -0.00180   0.00000  -0.00096  -0.00102  -0.92797
   D35        0.78337   0.00462   0.00000   0.00769   0.00775   0.79111
   D36       -1.33171   0.00061   0.00000   0.00384   0.00386  -1.32785
   D37        2.81477   0.01129   0.00000   0.01712   0.01714   2.83191
   D38       -1.35484  -0.00291   0.00000  -0.00145  -0.00130  -1.35614
   D39        2.81327  -0.00692   0.00000  -0.00530  -0.00519   2.80808
   D40        0.67656   0.00376   0.00000   0.00799   0.00809   0.68465
   D41       -1.06910   0.00868   0.00000   0.01360   0.01367  -1.05543
   D42        1.03077   0.00706   0.00000   0.01077   0.01083   1.04161
   D43        3.12328   0.00793   0.00000   0.01230   0.01235   3.13563
   D44        1.04765   0.00291   0.00000   0.00541   0.00544   1.05309
   D45       -3.13567   0.00128   0.00000   0.00258   0.00261  -3.13306
   D46       -1.04316   0.00216   0.00000   0.00410   0.00413  -1.03903
   D47       -3.12635  -0.00940   0.00000  -0.01531  -0.01540   3.14144
   D48       -1.02648  -0.01103   0.00000  -0.01813  -0.01823  -1.04471
   D49        1.06603  -0.01015   0.00000  -0.01661  -0.01671   1.04932
   D50       -2.19319  -0.06285   0.00000  -0.11489  -0.11412  -2.30731
   D51       -0.81226  -0.01692   0.00000  -0.03389  -0.03446  -0.84672
   D52        0.70318   0.00542   0.00000  -0.00357  -0.00355   0.69963
   D53        2.00118  -0.04868   0.00000  -0.08950  -0.08881   1.91237
   D54       -2.90107  -0.00275   0.00000  -0.00851  -0.00914  -2.91021
   D55       -1.38564   0.01959   0.00000   0.02182   0.02177  -1.36387
   D56       -0.10260  -0.04677   0.00000  -0.08575  -0.08504  -0.18763
   D57        1.27834  -0.00084   0.00000  -0.00475  -0.00537   1.27297
   D58        2.79377   0.02150   0.00000   0.02557   0.02554   2.81931
   D59       -1.04051   0.00148   0.00000   0.00244   0.00246  -1.03806
   D60        1.05354   0.00134   0.00000   0.00219   0.00221   1.05575
   D61       -3.13264   0.00064   0.00000   0.00098   0.00100  -3.13165
   D62        3.11989  -0.00051   0.00000  -0.00047  -0.00043   3.11946
   D63       -1.06925  -0.00065   0.00000  -0.00072  -0.00068  -1.06992
   D64        1.02776  -0.00136   0.00000  -0.00193  -0.00189   1.02587
   D65        1.00512   0.00167   0.00000   0.00357   0.00351   1.00863
   D66        3.09917   0.00153   0.00000   0.00333   0.00326   3.10244
   D67       -1.08701   0.00082   0.00000   0.00211   0.00205  -1.08496
   D68       -0.22656  -0.00681   0.00000  -0.01630  -0.01641  -0.24297
   D69        1.36533   0.00803   0.00000   0.01034   0.01051   1.37583
   D70        2.96936   0.00634   0.00000   0.01360   0.01408   2.98344
   D71        1.81886  -0.00709   0.00000  -0.01419  -0.01439   1.80447
   D72       -2.87244   0.00775   0.00000   0.01246   0.01253  -2.85991
   D73       -1.26840   0.00606   0.00000   0.01572   0.01610  -1.25230
   D74       -2.34565  -0.01294   0.00000  -0.02320  -0.02344  -2.36909
   D75       -0.75377   0.00190   0.00000   0.00345   0.00348  -0.75029
   D76        0.85027   0.00021   0.00000   0.00671   0.00705   0.85732
   D77       -0.27649   0.00822   0.00000   0.01726   0.01730  -0.25918
   D78       -2.02778   0.02037   0.00000   0.03245   0.03237  -1.99542
   D79        2.78634  -0.00854   0.00000  -0.02342  -0.02283   2.76351
   D80        0.94686   0.00625   0.00000   0.01581   0.01579   0.96265
   D81       -0.80443   0.01839   0.00000   0.03100   0.03085  -0.77358
   D82       -2.27350  -0.01051   0.00000  -0.02487  -0.02435  -2.29785
   D83        2.17352  -0.02863   0.00000  -0.04773  -0.04792   2.12560
   D84        0.42223  -0.01649   0.00000  -0.03254  -0.03285   0.38937
   D85       -1.04684  -0.04539   0.00000  -0.08841  -0.08805  -1.13489
         Item               Value     Threshold  Converged?
 Maximum Force            0.077843     0.000450     NO 
 RMS     Force            0.016222     0.000300     NO 
 Maximum Displacement     0.188981     0.001800     NO 
 RMS     Displacement     0.037165     0.001200     NO 
 Predicted change in Energy=-5.554661D-02
 GradGradGradGradGradGradGradGradGradGradGradGradGradGradGradGradGradGrad

                          Input orientation:                          
 ---------------------------------------------------------------------
 Center     Atomic      Atomic             Coordinates (Angstroms)
 Number     Number       Type             X           Y           Z
 ---------------------------------------------------------------------
      1          6           0       -1.942947   -1.091304   -1.365388
      2          6           0       -0.638891   -1.534725   -1.142536
      3          6           0        0.279976   -0.705016   -0.514265
      4          6           0       -0.103915    0.562500   -0.095546
      5          6           0       -1.448681    0.937411   -0.185676
      6          6           0       -2.366201    0.116842   -0.835352
      7          1           0       -0.346434   -2.505866   -1.461340
      8          1           0        1.281530   -1.033214   -0.362828
      9          1           0       -1.777890    1.855186    0.235356
     10          1           0       -3.386178    0.415603   -0.932130
     11          6           0       -2.881597   -1.929876   -2.210310
     12          7           0       -3.591319   -2.566222   -2.851436
     13          7           0        0.912818    1.500248    0.404064
     14          6           0        0.434460    2.536362    1.313080
     15          1           0       -0.373744    3.072879    0.853215
     16          6           0        1.416352    2.292840   -0.687418
     17          1           0        0.596733    2.641648   -1.290913
     18          6           0        2.395119    1.505890   -1.576663
     19          1           0        3.230303    1.172537   -0.981798
     20          1           0        1.893624    0.652526   -1.998909
     21          1           0        2.752107    2.138703   -2.370391
     22          6           0       -0.053568    1.914444    2.642390
     23          1           0       -0.863719    1.232420    2.455515
     24          1           0        0.761408    1.384923    3.104362
     25          1           0       -0.395498    2.689202    3.299784
     26          6           0        1.640421    3.557585    1.552465
     27          1           0        1.397730    3.459539    2.593271
     28          1           0        2.692089    3.490270    1.807312
     29          6           0        2.087415    3.487746   -0.015126
     30          1           0        3.009588    3.021600    0.278068
     31          1           0        2.646231    4.084907   -0.725928
 ---------------------------------------------------------------------
                    Distance matrix (angstroms):
                    1          2          3          4          5
     1  C    0.000000
     2  C    1.395294   0.000000
     3  C    2.411435   1.388329   0.000000
     4  C    2.780218   2.404317   1.388991   0.000000
     5  C    2.398271   2.771786   2.407031   1.398956   0.000000
     6  C    1.385532   2.409488   2.789409   2.421541   1.391853
     7  H    2.135192   1.063147   2.128943   3.367355   3.833852
     8  H    3.377240   2.132481   1.064780   2.130070   3.371765
     9  H    3.357295   3.832414   3.369181   2.140730   1.062053
    10  H    2.131056   3.375742   3.856304   3.390384   2.140880
    11  C    1.515968   2.515157   3.791095   4.289486   3.791270
[...]
 Alpha virt. eigenvalues --    0.09524   0.12749   0.22729   0.24491   0.25613
 Alpha virt. eigenvalues --    0.26936   0.27141   0.28770   0.29954   0.30817
 Alpha virt. eigenvalues --    0.32216   0.32479   0.33700   0.34124   0.34695
 Alpha virt. eigenvalues --    0.35852   0.36730   0.37559   0.38086   0.38424
 Alpha virt. eigenvalues --    0.39651   0.40256   0.41001   0.41089   0.43452
 Alpha virt. eigenvalues --    0.43781   0.45883   0.48494   0.50301   0.51878
 Alpha virt. eigenvalues --    0.53928   0.54920   0.58621   0.60996   0.69932
 Alpha virt. eigenvalues --    0.75926   0.83607   0.86800   0.89542   0.90454
 Alpha virt. eigenvalues --    0.92419   0.93526   0.94381   0.95094   0.96310
 Alpha virt. eigenvalues --    0.97428   0.98834   1.00497   1.01188   1.01614
 Alpha virt. eigenvalues --    1.02604   1.03501   1.04141   1.04876   1.05688
 Alpha virt. eigenvalues --    1.06839   1.08028   1.09085   1.11151   1.13785
 Alpha virt. eigenvalues --    1.18333   1.18465   1.19306   1.19672   1.23005
 Alpha virt. eigenvalues --    1.23831   1.24291   1.27370   1.28249   1.29177
 Alpha virt. eigenvalues --    1.29903   1.32496   1.33750   1.35152   1.36510
 Alpha virt. eigenvalues --    1.37468   1.38248   1.38711   1.40234   1.41365
 Alpha virt. eigenvalues --    1.41844   1.43172   1.45177   1.45869   1.46860
 Alpha virt. eigenvalues --    1.47588   1.52201   1.53727   1.56610   1.58840
 Alpha virt. eigenvalues --    1.60893   1.61756   1.67071   1.68350   1.76694
 Alpha virt. eigenvalues --    1.78086   1.79019   1.79937   1.87158   1.92961
 Alpha virt. eigenvalues --    2.02529   2.04399   2.07678   2.11834   2.20938
 Alpha virt. eigenvalues --    2.23405   2.27990   2.48272   2.67521   2.71382
 Alpha virt. eigenvalues --    2.78466   3.29575   3.31761
          Condensed to atoms (all electrons):
              1          2          3          4          5          6
     1  C    5.445146   0.455174  -0.118802  -0.002315  -0.119448   0.454266
     2  C    0.455174   5.165897   0.440587  -0.108640   0.002381  -0.069187
     3  C   -0.118802   0.440587   5.217911   0.486996  -0.122775  -0.001447
     4  C   -0.002315  -0.108640   0.486996   4.938393   0.389947  -0.087334
     5  C   -0.119448   0.002381  -0.122775   0.389947   5.325353   0.428746
     6  C    0.454266  -0.069187  -0.001447  -0.087334   0.428746   5.162631
     7  H   -0.036103   0.397417  -0.023149   0.002171  -0.000081   0.001911
     8  H    0.002621  -0.029083   0.391109  -0.034574   0.003547  -0.000302
     9  H    0.002747  -0.000066   0.002185  -0.038494   0.402866  -0.032458
    10  H   -0.035149   0.001866  -0.000030   0.001680  -0.023476   0.397764
    11  C    0.125450  -0.064694   0.001385   0.000177   0.001656  -0.064802
    12  N   -0.108435  -0.000431  -0.000009   0.000001  -0.000010  -0.000438
    13  N   -0.000285   0.003615  -0.061405   0.307199  -0.071836   0.004096
    14  C    0.000008  -0.000111   0.000416  -0.074910  -0.000073   0.000177
    15  H    0.000000   0.000017  -0.000165  -0.001796   0.002439  -0.000250
    16  C    0.000012  -0.000088   0.000868  -0.076674  -0.001359   0.000074
    17  H   -0.000001   0.000022  -0.000232  -0.001350   0.003014  -0.000290
    18  C   -0.000001  -0.000003   0.000323  -0.000529  -0.000277   0.000011
    19  H    0.000000   0.000001  -0.000014   0.000062   0.000005   0.000000
    20  H   -0.000003   0.000028   0.000907   0.001645   0.000040  -0.000007
    21  H    0.000000   0.000000  -0.000020   0.000014   0.000009   0.000000
    22  C    0.000000   0.000023   0.000492  -0.003960  -0.000618   0.000012
    23  H   -0.000014   0.000006   0.000972   0.002555   0.000038  -0.000009
    24  H    0.000000   0.000012   0.000049   0.000015   0.000034  -0.000001
    25  H    0.000000   0.000000  -0.000014   0.000106   0.000015  -0.000001
    26  C    0.000000   0.000001  -0.000064   0.005110  -0.000136  -0.000001
    27  H    0.000000   0.000000   0.000000  -0.000068   0.000004   0.000000
    28  H    0.000000   0.000000   0.000005  -0.000183   0.000001   0.000000
    29  C    0.000000   0.000001  -0.000048   0.004835  -0.000112   0.000001
    30  H    0.000000   0.000000   0.000000  -0.000054   0.000000   0.000000
    31  H    0.000000   0.000000   0.000002  -0.000226   0.000038   0.000000
              7          8          9         10         11         12
     1  C   -0.036103   0.002621   0.002747  -0.035149   0.125450  -0.108435
     2  C    0.397417  -0.029083  -0.000066   0.001866  -0.064694  -0.000431
     3  C   -0.023149   0.391109   0.002185  -0.000030   0.001385  -0.000009
     4  C    0.002171  -0.034574  -0.038494   0.001680   0.000177   0.000001
     5  C   -0.000081   0.003547   0.402866  -0.023476   0.001656  -0.000010
     6  C    0.001911  -0.000302  -0.032458   0.397764  -0.064802  -0.000438
     7  H    0.392163  -0.001552   0.000001  -0.000035  -0.001197  -0.000115
     8  H   -0.001552   0.401574  -0.000027   0.000002  -0.000054   0.000000
     9  H    0.000001  -0.000027   0.413981  -0.001412  -0.000062   0.000000
    10  H   -0.000035   0.000002  -0.001412   0.391683  -0.001092  -0.000111
    11  C   -0.001197  -0.000054  -0.000062  -0.001092   4.783010   0.886038
    12  N   -0.000115   0.000000   0.000000  -0.000111   0.886038   6.732228
    13  N   -0.000016   0.001053  -0.005378  -0.000013   0.000000   0.000000
    14  C    0.000001  -0.000137   0.000806   0.000000   0.000000   0.000000
    15  H    0.000000   0.000026   0.001326   0.000001   0.000000   0.000000
    16  C    0.000001  -0.000174   0.000524   0.000000   0.000000   0.000000
    17  H    0.000000   0.000043   0.000575   0.000001   0.000000   0.000000
    18  C    0.000000  -0.000082  -0.000022   0.000000   0.000000   0.000000
    19  H    0.000000   0.000084   0.000000   0.000000   0.000000   0.000000
    20  H   -0.000001   0.000274   0.000000   0.000000   0.000000   0.000000
    21  H    0.000000   0.000009   0.000001   0.000000   0.000000   0.000000
    22  C    0.000000  -0.000113  -0.000072   0.000000   0.000000   0.000000
    23  H   -0.000001  -0.000015  -0.000003   0.000000   0.000000   0.000000
    24  H    0.000000   0.000273   0.000001   0.000000   0.000000   0.000000
    25  H    0.000000   0.000007   0.000002   0.000000   0.000000   0.000000
    26  C    0.000000  -0.000009  -0.000051   0.000000   0.000000   0.000000
    27  H    0.000000   0.000000   0.000001   0.000000   0.000000   0.000000
    28  H    0.000000   0.000003   0.000001   0.000000   0.000000   0.000000
    29  C    0.000000   0.000000  -0.000001   0.000000   0.000000   0.000000
    30  H    0.000000   0.000000   0.000000   0.000000   0.000000   0.000000
    31  H    0.000000   0.000000   0.000091   0.000000   0.000000   0.000000
             13         14         15         16         17         18
     1  C   -0.000285   0.000008   0.000000   0.000012  -0.000001  -0.000001
     2  C    0.003615  -0.000111   0.000017  -0.000088   0.000022  -0.000003
     3  C   -0.061405   0.000416  -0.000165   0.000868  -0.000232   0.000323
     4  C    0.307199  -0.074910  -0.001796  -0.076674  -0.001350  -0.000529
     5  C   -0.071836  -0.000073   0.002439  -0.001359   0.003014  -0.000277
     6  C    0.004096   0.000177  -0.000250   0.000074  -0.000290   0.000011
     7  H   -0.000016   0.000001   0.000000   0.000001   0.000000   0.000000
     8  H    0.001053  -0.000137   0.000026  -0.000174   0.000043  -0.000082
     9  H   -0.005378   0.000806   0.001326   0.000524   0.000575  -0.000022
    10  H   -0.000013   0.000000   0.000001   0.000000   0.000001   0.000000
    11  C    0.000000   0.000000   0.000000   0.000000   0.000000   0.000000
    12  N    0.000000   0.000000   0.000000   0.000000   0.000000   0.000000
    13  N    7.485076   0.234823  -0.047887   0.229417  -0.040534  -0.067006
    14  C    0.234823   5.345461   0.381286  -0.076971   0.001392   0.004987
    15  H   -0.047887   0.381286   0.564607   0.002161   0.000561  -0.000208
    16  C    0.229417  -0.076971   0.002161   5.355853   0.395977   0.249969
    17  H   -0.040534   0.001392   0.000561   0.395977   0.516359  -0.056338
    18  C   -0.067006   0.004987  -0.000208   0.249969  -0.056338   5.374416
    19  H    0.002443  -0.000046   0.000015  -0.046514   0.003199   0.376201
    20  H   -0.001168   0.000023   0.000001  -0.041954  -0.001327   0.379797
    21  H    0.002782  -0.000117   0.000006  -0.045210   0.001425   0.358551
    22  C   -0.060870   0.262862  -0.056614   0.003791  -0.000097  -0.000080
    23  H   -0.002060  -0.042249  -0.001967  -0.000003  -0.000002   0.000002
    24  H    0.003857  -0.048186   0.003680  -0.000019   0.000005  -0.000034
    25  H    0.002493  -0.044657   0.001570  -0.000079   0.000002   0.000000
    26  C   -0.073823   0.256874  -0.047552  -0.103476   0.004287   0.003126
    27  H    0.002245  -0.039522  -0.000430   0.003528  -0.000018  -0.000086
    28  H    0.002402  -0.049134   0.003373   0.001131  -0.000012   0.000375
    29  C   -0.051040  -0.107008  -0.001275   0.254948  -0.037740  -0.082160
    30  H    0.002014   0.003889  -0.000099  -0.039305   0.000855  -0.001623
    31  H    0.002007   0.001262   0.001094  -0.043264  -0.003586   0.003082
             19         20         21         22         23         24
     1  C    0.000000  -0.000003   0.000000   0.000000  -0.000014   0.000000
     2  C    0.000001   0.000028   0.000000   0.000023   0.000006   0.000012
     3  C   -0.000014   0.000907  -0.000020   0.000492   0.000972   0.000049
     4  C    0.000062   0.001645   0.000014  -0.003960   0.002555   0.000015
     5  C    0.000005   0.000040   0.000009  -0.000618   0.000038   0.000034
     6  C    0.000000  -0.000007   0.000000   0.000012  -0.000009  -0.000001
     7  H    0.000000  -0.000001   0.000000   0.000000  -0.000001   0.000000
     8  H    0.000084   0.000274   0.000009  -0.000113  -0.000015   0.000273
     9  H    0.000000   0.000000   0.000001  -0.000072  -0.000003   0.000001
    10  H    0.000000   0.000000   0.000000   0.000000   0.000000   0.000000
    11  C    0.000000   0.000000   0.000000   0.000000   0.000000   0.000000
    12  N    0.000000   0.000000   0.000000   0.000000   0.000000   0.000000
    13  N    0.002443  -0.001168   0.002782  -0.060870  -0.002060   0.003857
    14  C   -0.000046   0.000023  -0.000117   0.262862  -0.042249  -0.048186
    15  H    0.000015   0.000001   0.000006  -0.056614  -0.001967   0.003680
    16  C   -0.046514  -0.041954  -0.045210   0.003791  -0.000003  -0.000019
    17  H    0.003199  -0.001327   0.001425  -0.000097  -0.000002   0.000005
    18  C    0.376201   0.379797   0.358551  -0.000080   0.000002  -0.000034
    19  H    0.508128  -0.024628  -0.023529  -0.000053  -0.000001   0.000060
    20  H   -0.024628   0.501093  -0.025314  -0.000003   0.000000   0.000001
    21  H   -0.023529  -0.025314   0.543718   0.000000   0.000000   0.000001
    22  C   -0.000053  -0.000003   0.000000   5.362863   0.380769   0.371915
    23  H   -0.000001   0.000000   0.000000   0.380769   0.496242  -0.024333
    24  H    0.000060   0.000001   0.000001   0.371915  -0.024333   0.505336
    25  H    0.000001   0.000000   0.000000   0.365922  -0.026003  -0.022153
    26  C    0.001013  -0.000175   0.000219  -0.066675   0.003384  -0.002421
    27  H    0.000004   0.000001   0.000001   0.000577  -0.000063   0.000096
    28  H    0.000806  -0.000012   0.000041  -0.002995   0.000019   0.003081
    29  C   -0.002087   0.003431  -0.000139   0.004752  -0.000117  -0.000089
    30  H    0.000297   0.000057   0.000795  -0.000044   0.000001  -0.000002
    31  H    0.000009  -0.000055  -0.000048  -0.000054   0.000002   0.000000
             25         26         27         28         29         30
     1  C    0.000000   0.000000   0.000000   0.000000   0.000000   0.000000
     2  C    0.000000   0.000001   0.000000   0.000000   0.000001   0.000000
     3  C   -0.000014  -0.000064   0.000000   0.000005  -0.000048   0.000000
     4  C    0.000106   0.005110  -0.000068  -0.000183   0.004835  -0.000054
     5  C    0.000015  -0.000136   0.000004   0.000001  -0.000112   0.000000
     6  C   -0.000001  -0.000001   0.000000   0.000000   0.000001   0.000000
     7  H    0.000000   0.000000   0.000000   0.000000   0.000000   0.000000
     8  H    0.000007  -0.000009   0.000000   0.000003   0.000000   0.000000
     9  H    0.000002  -0.000051   0.000001   0.000001  -0.000001   0.000000
    10  H    0.000000   0.000000   0.000000   0.000000   0.000000   0.000000
    11  C    0.000000   0.000000   0.000000   0.000000   0.000000   0.000000
    12  N    0.000000   0.000000   0.000000   0.000000   0.000000   0.000000
    13  N    0.002493  -0.073823   0.002245   0.002402  -0.051040   0.002014
    14  C   -0.044657   0.256874  -0.039522  -0.049134  -0.107008   0.003889
    15  H    0.001570  -0.047552  -0.000430   0.003373  -0.001275  -0.000099
    16  C   -0.000079  -0.103476   0.003528   0.001131   0.254948  -0.039305
    17  H    0.000002   0.004287  -0.000018  -0.000012  -0.037740   0.000855
    18  C    0.000000   0.003126  -0.000086   0.000375  -0.082160  -0.001623
    19  H    0.000001   0.001013   0.000004   0.000806  -0.002087   0.000297
    20  H    0.000000  -0.000175   0.000001  -0.000012   0.003431   0.000057
    21  H    0.000000   0.000219   0.000001   0.000041  -0.000139   0.000795
    22  C    0.365922  -0.066675   0.000577  -0.002995   0.004752  -0.000044
    23  H   -0.026003   0.003384  -0.000063   0.000019  -0.000117   0.000001
    24  H   -0.022153  -0.002421   0.000096   0.003081  -0.000089  -0.000002
    25  H    0.528539  -0.001866   0.000902   0.000254  -0.000036  -0.000001
    26  C   -0.001866   5.491060   0.389830   0.386042   0.242401  -0.034121
    27  H    0.000902   0.389830   0.486560  -0.020837  -0.034092   0.000006
    28  H    0.000254   0.386042  -0.020837   0.495859  -0.044166  -0.002756
    29  C   -0.000036   0.242401  -0.034092  -0.044166   5.501618   0.394987
    30  H   -0.000001  -0.034121   0.000006  -0.002756   0.394987   0.476608
    31  H    0.000000  -0.046055  -0.002709   0.002909   0.386941  -0.022222
             31
     1  C    0.000000
     2  C    0.000000
     3  C    0.000002
     4  C   -0.000226
     5  C    0.000038
     6  C    0.000000
     7  H    0.000000
     8  H    0.000000
     9  H    0.000091
    10  H    0.000000
    11  C    0.000000
    12  N    0.000000
    13  N    0.002007
    14  C    0.001262
    15  H    0.001094
    16  C   -0.043264
    17  H   -0.003586
    18  C    0.003082
    19  H    0.000009
    20  H   -0.000055
    21  H   -0.000048
    22  C   -0.000054
    23  H    0.000002
    24  H    0.000000
    25  H    0.000000
    26  C   -0.046055
    27  H   -0.002709
    28  H    0.002909
    29  C    0.386941
    30  H   -0.022222
    31  H    0.505537
 Mulliken atomic charges:
              1
     1  C   -0.064868
     2  C   -0.194744
     3  C   -0.216033
     4  C    0.290200
     5  C   -0.219933
     6  C   -0.193163
     7  H    0.268585
     8  H    0.265499
     9  H    0.252940
    10  H    0.268321
    11  C    0.334185
    12  N   -0.508718
    13  N   -0.802198
    14  C   -0.011145
    15  H    0.196079
    16  C   -0.023163
    17  H    0.213808
    18  C   -0.542390
    19  H    0.204545
    20  H    0.207347
    21  H    0.186808
    22  C   -0.561730
    23  H    0.212848
    24  H    0.208822
    25  H    0.194997
    26  C   -0.406921
    27  H    0.214069
    28  H    0.223794
    29  C   -0.433804
    30  H    0.220718
    31  H    0.215244
 Sum of Mulliken atomic charges =   0.00000
 Mulliken charges with hydrogens summed into heavy atoms:
              1
     1  C   -0.064868
     2  C    0.073841
     3  C    0.049466
     4  C    0.290200
     5  C    0.033007
     6  C    0.075157
    11  C    0.334185
    12  N   -0.508718
    13  N   -0.802198
    14  C    0.184934
    16  C    0.190645
    18  C    0.056310
    22  C    0.054937
    26  C    0.030943
    29  C    0.002159
 Sum of Mulliken charges with hydrogens summed into heavy atoms =   0.00000
 Electronic spatial extent (au):  <R**2>=           3854.1047
 Charge=              0.0000 electrons
 Dipole moment (field-independent basis, Debye):
    X=              5.3404    Y=              0.1022    Z=             -0.5895  Tot=              5.3738
 Quadrupole moment (field-independent basis, Debye-Ang):
   XX=           -120.4122   YY=            -93.0123   ZZ=            -84.6057
   XY=             -0.0802   XZ=             -2.8568   YZ=             -0.3178
 Traceless Quadrupole moment (field-independent basis, Debye-Ang):
   XX=            -21.0688   YY=              6.3311   ZZ=             14.7377
   XY=             -0.0802   XZ=             -2.8568   YZ=             -0.3178
 Octapole moment (field-independent basis, Debye-Ang**2):
  XXX=            245.6765  YYY=              1.0544  ZZZ=             -0.6602  XYY=             12.4161
  XXY=              2.5030  XXZ=              6.2171  XZZ=             -9.4585  YZZ=              0.1185
  YYZ=             -1.2741  XYZ=              0.7357
 Hexadecapole moment (field-independent basis, Debye-Ang**3):
 XXXX=          -5534.5353 YYYY=           -761.1076 ZZZZ=           -449.5907 XXXY=            -14.5513
 XXXZ=            -54.8389 YYYX=              1.3802 YYYZ=              0.5949 ZZZX=              0.1790
 ZZZY=             -1.7532 XXYY=           -809.5731 XXZZ=           -726.8466 YYZZ=           -218.1197
 XXYZ=             -4.8161 YYXZ=             -5.9347 ZZXY=              3.4711
 N-N= 9.497960298980D+02 E-N=-3.312555647870D+03  KE= 6.061173597859D+02
 1|1|UNPC-DESKTOP-K2VF0AK|FOpt|RHF|3-21G|C13H16N2|MELIH|17-Dec-2024|0||
 # opt hf/3-21g geom=connectivity||Title Card Required||0,1|C,-2.189445
 6404,-1.0530597148,-1.3143159594|C,-0.9980801982,-1.5530304633,-0.8070
 800559|C,-0.0387009526,-0.6860784963,-0.3219543054|C,-0.2468526296,0.6
 848309444,-0.3346346315|C,-1.4436958397,1.1760046631,-0.8450839927|C,-
 2.409057906,0.3193718197,-1.3307166921|H,-0.8298596956,-2.6107511512,-
 0.793958423|H,0.8827079976,-1.0566801423,0.0751185667|H,-1.6169108665,
 2.2332001122,-0.8614664587|H,-3.3290122976,0.7035674348,-1.722537906|C
 ,-3.1863611736,-1.9439076377,-1.8171133754|N,-3.9826224019,-2.65502326
 8,-2.2186531945|N,0.7663163493,1.5499137784,0.1675254812|C,0.497432367
 7,2.3036435146,1.4148025696|H,-0.4365718713,2.8594090589,1.3451702089|
 C,1.5283397256,2.3721093175,-0.8171164535|H,0.9193750203,2.5737306339,
 -1.6912636785|C,2.7983056108,1.6284920277,-1.236829501|H,3.4199982894,
 1.4490997312,-0.3682601218|H,2.5467598364,0.6718888534,-1.6800204754|H
 ,3.3601572516,2.2061204069,-1.9633678459|C,0.4541202576,1.3709039825,2
 .6245130241|H,-0.368367349,0.6698767214,2.5457956569|H,1.3801804097,0.
 8121065337,2.6773909224|H,0.3283690475,1.9411936959,3.5386460968|C,1.6
 765886805,3.2878855137,1.4353301189|H,1.4920078979,4.1356604372,2.0818
 091271|H,2.5642066128,2.7688087518,1.7759234376|C,1.8257367507,3.68475
 85631,-0.0467840451|H,2.8064392527,4.0764790983,-0.2806223994|H,1.0858
 213137,4.4370643591,-0.295320785||Version=IA32W-G09RevA.02|State=1-A|H
 F=-607.1095562|RMSD=4.244e-009|RMSF=5.537e-006|Dipole=1.2680642,1.5505
 296,0.6766325|Quadrupole=-3.9824437,1.6347939,2.3476498,-11.6602668,-4
 .5520496,-5.4456895|PG=C01 [X(C13H16N2)]||@


 Change starts when someone sees the next step.
                            -- William Drayton
 Job cpu time:  0 days  0 hours 10 minutes 42.0 seconds.
 File lengths (MBytes):  RWF=     23 Int=      0 D2E=      0 Chk=      3 Scr=      1
 Normal termination of Gaussian 09 at Tue Dec 17 15:04:36 2024.
